MODEL 1
REMARK VINA RESULT:    -4.740      0.000      0.000
REMARK INTER + INTRA:          -7.219
REMARK INTER:                  -6.402
REMARK INTRA:                  -0.817
REMARK UNBOUND:                -0.817
REMARK  Name = /home/ubuntu/ubp_medicine_study/real_molecular_docking/ligands_pdbqt/NOVEL_0058.pdb
REMARK  7 active torsions:
REMARK  status: ('A' for Active; 'I' for Inactive)
REMARK    1  A    between atoms: C1_1  and  C2_2
REMARK    2  A    between atoms: C2_2  and  C3_3
REMARK    3  A    between atoms: C8_11  and  C9_12
REMARK    4  A    between atoms: C12_15  and  C13_16
REMARK    5  A    between atoms: N3_18  and  C14_19
REMARK    6  A    between atoms: C14_19  and  C15_20
REMARK    7  A    between atoms: C15_20  and  C16_21
REMARK                            x       y       z     vdW  Elec       q    Type
REMARK                         _______ _______ _______ _____ _____    ______ ____
ROOT
ATOM      1  C2  UNL     1      39.111  30.348  29.422  0.00  0.00    +0.000 C 
ATOM      2  O1  UNL     1      39.499  28.952  29.527  0.00  0.00    +0.000 OA
ATOM      3  C4  UNL     1      38.855  27.973  28.863  0.00  0.00    +0.000 C 
ATOM      4  S1  UNL     1      39.545  26.466  28.864  0.00  0.00    +0.000 S 
ATOM      5  N1  UNL     1      37.666  28.242  28.262  0.00  0.00    +0.000 N 
ATOM      6  C5  UNL     1      37.041  29.482  28.309  0.00  0.00    +0.000 A 
ATOM      7  C6  UNL     1      35.769  29.631  27.755  0.00  0.00    +0.000 A 
ATOM      8  C7  UNL     1      35.136  30.873  27.803  0.00  0.00    +0.000 A 
ATOM      9  C8  UNL     1      35.770  31.964  28.404  0.00  0.00    +0.000 A 
ATOM     10  C17 UNL     1      37.058  31.802  28.932  0.00  0.00    +0.000 A 
ATOM     11  C18 UNL     1      37.703  30.552  28.901  0.00  0.00    +0.000 A 
ATOM     12  H7  UNL     1      37.201  27.459  27.818  0.00  0.00    +0.000 HD
ATOM     13  H8  UNL     1      35.260  28.793  27.287  0.00  0.00    +0.000 HD
ATOM     14  H9  UNL     1      34.144  30.984  27.369  0.00  0.00    +0.000 HD
ATOM     15  H18 UNL     1      37.568  32.668  29.349  0.00  0.00    +0.000 HD
ENDROOT
BRANCH   9  16
ATOM     16  C9  UNL     1      35.108  33.266  28.441  0.00  0.00    +0.000 A 
ATOM     17  C10 UNL     1      35.044  34.212  27.432  0.00  0.00    +0.000 A 
ATOM     18  C11 UNL     1      34.329  35.328  27.919  0.00  0.00    +0.000 A 
ATOM     19  C12 UNL     1      33.952  35.046  29.214  0.00  0.00    +0.000 A 
ATOM     20  N3  UNL     1      34.395  33.773  29.518  0.00  0.00    +0.000 N 
ATOM     21  H10 UNL     1      35.493  34.114  26.450  0.00  0.00    +0.000 HD
ATOM     22  H11 UNL     1      34.122  36.247  27.383  0.00  0.00    +0.000 HD
BRANCH  20  23
ATOM     23  C14 UNL     1      34.146  33.079  30.778  0.00  0.00    +0.000 C 
ATOM     24  H12 UNL     1      34.310  32.007  30.626  0.00  0.00    +0.000 HD
ATOM     25  H13 UNL     1      33.080  33.191  31.001  0.00  0.00    +0.000 HD
BRANCH  23  26
ATOM     26  C15 UNL     1      34.987  33.581  31.953  0.00  0.00    +0.000 C 
ATOM     27  H14 UNL     1      35.637  32.792  32.340  0.00  0.00    +0.000 HD
ATOM     28  H15 UNL     1      35.638  34.381  31.580  0.00  0.00    +0.000 HD
BRANCH  26  29
ATOM     29  C16 UNL     1      34.142  34.135  33.084  0.00  0.00    +0.000 C 
ATOM     30  F1  UNL     1      34.162  33.251  34.115  0.00  0.00    +0.000 F 
ATOM     31  H16 UNL     1      34.509  35.098  33.448  0.00  0.00    +0.000 HD
ATOM     32  H17 UNL     1      33.102  34.256  32.768  0.00  0.00    +0.000 HD
ENDBRANCH  26  29
ENDBRANCH  23  26
ENDBRANCH  20  23
BRANCH  19  33
ATOM     33  C13 UNL     1      33.233  35.917  30.085  0.00  0.00    +0.000 C 
ATOM     34  N2  UNL     1      32.638  36.630  30.778  0.00  0.00    +0.000 NA
ENDBRANCH  19  33
ENDBRANCH   9  16
BRANCH   1  35
ATOM     35  C1  UNL     1      40.125  31.007  28.478  0.00  0.00    +0.000 C 
ATOM     36  H1  UNL     1      39.882  32.065  28.319  0.00  0.00    +0.000 HD
ATOM     37  H2  UNL     1      41.148  30.950  28.864  0.00  0.00    +0.000 HD
ATOM     38  H3  UNL     1      40.104  30.533  27.490  0.00  0.00    +0.000 HD
ENDBRANCH   1  35
BRANCH   1  39
ATOM     39  C3  UNL     1      39.277  30.908  30.843  0.00  0.00    +0.000 C 
ATOM     40  H4  UNL     1      39.174  30.110  31.588  0.00  0.00    +0.000 HD
ATOM     41  H5  UNL     1      40.280  31.331  30.979  0.00  0.00    +0.000 HD
ATOM     42  H6  UNL     1      38.548  31.690  31.077  0.00  0.00    +0.000 HD
ENDBRANCH   1  39
TORSDOF 7
ENDMDL
