MODEL 1
REMARK VINA RESULT:     0.000      0.000      0.000
REMARK INTER + INTRA:          -3.689
REMARK INTER:                   0.000
REMARK INTRA:                  -3.689
REMARK UNBOUND:                -3.689
REMARK  Name = /home/ubuntu/ubp_medicine_study/real_molecular_docking/ligands_pdbqt/NOVEL_0075.pdb
REMARK  15 active torsions:
REMARK  status: ('A' for Active; 'I' for Inactive)
REMARK    1  A    between atoms: N4_10  and  C6_11
REMARK    2  A    between atoms: C6_11  and  C7_12
REMARK    3  A    between atoms: C6_11  and  C10_20
REMARK    4  A    between atoms: C7_12  and  O2_13
REMARK    5  A    between atoms: O2_13  and  C8_14
REMARK    6  A    between atoms: C8_14  and  C9_15
REMARK    7  A    between atoms: C9_15  and  P1_16
REMARK    8  A    between atoms: P1_16  and  O4_18
REMARK    9  A    between atoms: P1_16  and  O5_19
REMARK   10  A    between atoms: C10_20  and  O6_21
REMARK   11  A    between atoms: O6_21  and  C11_22
REMARK   12  A    between atoms: C11_22  and  C12_23
REMARK   13  A    between atoms: C12_23  and  P2_24
REMARK   14  A    between atoms: P2_24  and  O8_26
REMARK   15  A    between atoms: P2_24  and  O9_27
REMARK                            x       y       z     vdW  Elec       q    Type
REMARK                         _______ _______ _______ _____ _____    ______ ____
ROOT
ATOM      1  C6  UNL     1      51.370  48.168  53.265  0.00  0.00    +0.000 C 
ATOM      2  H4  UNL     1      50.674  48.082  52.421  0.00  0.00    +0.000 HD
ENDROOT
BRANCH   1  12
ATOM      3  O1  UNL     1      53.362  42.538  52.952  0.00  0.00    +0.000 OA
ATOM      4  C1  UNL     1      52.670  43.486  52.599  0.00  0.00    +0.000 A 
ATOM      5  N1  UNL     1      51.782  43.392  51.536  0.00  0.00    +0.000 N 
ATOM      6  C2  UNL     1      50.988  44.439  51.105  0.00  0.00    +0.000 A 
ATOM      7  N2  UNL     1      50.964  45.629  51.626  0.00  0.00    +0.000 NA
ATOM      8  C3  UNL     1      51.817  45.755  52.671  0.00  0.00    +0.000 A 
ATOM      9  C4  UNL     1      52.663  44.805  53.202  0.00  0.00    +0.000 A 
ATOM     10  N3  UNL     1      53.383  45.306  54.256  0.00  0.00    +0.000 NA
ATOM     11  C5  UNL     1      52.975  46.554  54.368  0.00  0.00    +0.000 A 
ATOM     12  N4  UNL     1      52.023  46.874  53.429  0.00  0.00    +0.000 N 
ATOM     13  H1  UNL     1      51.748  42.494  51.080  0.00  0.00    +0.000 HD
ATOM     14  H2  UNL     1      50.349  44.179  50.246  0.00  0.00    +0.000 HD
ATOM     15  H3  UNL     1      53.335  47.260  55.105  0.00  0.00    +0.000 HD
ENDBRANCH   1  12
BRANCH   1  16
ATOM     16  C7  UNL     1      50.539  48.522  54.511  0.00  0.00    +0.000 C 
ATOM     17  H5  UNL     1      50.291  49.590  54.517  0.00  0.00    +0.000 HD
ATOM     18  H6  UNL     1      51.116  48.302  55.419  0.00  0.00    +0.000 HD
BRANCH  16  19
ATOM     19  O2  UNL     1      49.337  47.754  54.553  0.00  0.00    +0.000 OA
BRANCH  19  20
ATOM     20  C8  UNL     1      48.185  48.540  54.255  0.00  0.00    +0.000 C 
ATOM     21  H7  UNL     1      48.380  49.164  53.374  0.00  0.00    +0.000 HD
ATOM     22  H8  UNL     1      47.952  49.195  55.102  0.00  0.00    +0.000 HD
BRANCH  20  23
ATOM     23  C9  UNL     1      47.028  47.601  53.984  0.00  0.00    +0.000 C 
ATOM     24  H9  UNL     1      46.763  47.066  54.903  0.00  0.00    +0.000 HD
ATOM     25  H10 UNL     1      46.142  48.187  53.715  0.00  0.00    +0.000 HD
BRANCH  23  26
ATOM     26  P1  UNL     1      47.392  46.448  52.689  0.00  0.00    +0.000 P 
ATOM     27  O3  UNL     1      46.229  45.862  51.966  0.00  0.00    +0.000 OA
BRANCH  26  28
ATOM     28  O4  UNL     1      48.377  45.366  53.343  0.00  0.00    +0.000 OA
ATOM     29  H11 UNL     1      48.147  45.077  54.245  0.00  0.00    +0.000 HD
ENDBRANCH  26  28
BRANCH  26  30
ATOM     30  O5  UNL     1      48.416  47.206  51.719  0.00  0.00    +0.000 OA
ATOM     31  H12 UNL     1      48.429  46.786  50.837  0.00  0.00    +0.000 HD
ENDBRANCH  26  30
ENDBRANCH  23  26
ENDBRANCH  20  23
ENDBRANCH  19  20
ENDBRANCH  16  19
ENDBRANCH   1  16
BRANCH   1  32
ATOM     32  C10 UNL     1      52.410  49.243  52.902  0.00  0.00    +0.000 C 
ATOM     33  H13 UNL     1      53.263  49.171  53.587  0.00  0.00    +0.000 HD
ATOM     34  H14 UNL     1      51.975  50.244  53.011  0.00  0.00    +0.000 HD
BRANCH  32  35
ATOM     35  O6  UNL     1      52.872  49.079  51.561  0.00  0.00    +0.000 OA
BRANCH  35  36
ATOM     36  C11 UNL     1      52.495  50.152  50.696  0.00  0.00    +0.000 C 
ATOM     37  H15 UNL     1      51.458  50.404  50.938  0.00  0.00    +0.000 HD
ATOM     38  H16 UNL     1      53.095  51.046  50.900  0.00  0.00    +0.000 HD
BRANCH  36  39
ATOM     39  C12 UNL     1      52.582  49.735  49.240  0.00  0.00    +0.000 C 
ATOM     40  H17 UNL     1      53.634  49.724  48.931  0.00  0.00    +0.000 HD
ATOM     41  H18 UNL     1      52.096  50.483  48.605  0.00  0.00    +0.000 HD
BRANCH  39  42
ATOM     42  P2  UNL     1      51.855  48.155  48.913  0.00  0.00    +0.000 P 
ATOM     43  O7  UNL     1      51.501  47.823  47.504  0.00  0.00    +0.000 OA
BRANCH  42  44
ATOM     44  O8  UNL     1      50.584  48.042  49.881  0.00  0.00    +0.000 OA
ATOM     45  H19 UNL     1      50.782  48.305  50.799  0.00  0.00    +0.000 HD
ENDBRANCH  42  44
BRANCH  42  46
ATOM     46  O9  UNL     1      52.826  47.058  49.557  0.00  0.00    +0.000 OA
ATOM     47  H20 UNL     1      52.357  46.431  50.140  0.00  0.00    +0.000 HD
ENDBRANCH  42  46
ENDBRANCH  39  42
ENDBRANCH  36  39
ENDBRANCH  35  36
ENDBRANCH  32  35
ENDBRANCH   1  32
TORSDOF 15
ENDMDL
