MODEL 1
REMARK VINA RESULT:     0.000      0.000      0.000
REMARK INTER + INTRA:          -0.277
REMARK INTER:                   0.000
REMARK INTRA:                  -0.277
REMARK UNBOUND:                -0.277
REMARK  Name = /home/ubuntu/ubp_medicine_study/real_molecular_docking/ligands_pdbqt/NOVEL_0044.pdb
REMARK  5 active torsions:
REMARK  status: ('A' for Active; 'I' for Inactive)
REMARK    1  A    between atoms: C1_1  and  N1_2
REMARK    2  A    between atoms: N1_2  and  C2_3
REMARK    3  A    between atoms: N1_2  and  C3_4
REMARK    4  A    between atoms: C6_7  and  C7_8
REMARK    5  A    between atoms: N2_9  and  N3_10
REMARK                            x       y       z     vdW  Elec       q    Type
REMARK                         _______ _______ _______ _____ _____    ______ ____
ROOT
ATOM      1  N3  UNL     1      44.799  44.593  44.646  0.00  0.00    +0.000 N 
ATOM      2  C8  UNL     1      43.812  43.766  45.213  0.00  0.00    +0.000 C 
ATOM      3  O1  UNL     1      43.918  42.551  45.326  0.00  0.00    +0.000 OA
ATOM      4  N4  UNL     1      42.725  44.530  45.582  0.00  0.00    +0.000 N 
ATOM      5  C9  UNL     1      41.590  44.098  46.218  0.00  0.00    +0.000 A 
ATOM      6  N5  UNL     1      40.547  44.882  46.326  0.00  0.00    +0.000 NA
ATOM      7  C10 UNL     1      39.532  44.228  47.025  0.00  0.00    +0.000 A 
ATOM      8  C11 UNL     1      39.859  42.940  47.455  0.00  0.00    +0.000 A 
ATOM      9  C12 UNL     1      38.959  42.138  48.176  0.00  0.00    +0.000 A 
ATOM     10  C13 UNL     1      37.692  42.657  48.466  0.00  0.00    +0.000 A 
ATOM     11  C14 UNL     1      37.319  43.942  48.057  0.00  0.00    +0.000 A 
ATOM     12  C15 UNL     1      36.049  44.468  48.345  0.00  0.00    +0.000 A 
ATOM     13  C16 UNL     1      35.698  45.755  47.928  0.00  0.00    +0.000 A 
ATOM     14  C17 UNL     1      36.605  46.537  47.217  0.00  0.00    +0.000 A 
ATOM     15  C18 UNL     1      37.872  46.036  46.918  0.00  0.00    +0.000 A 
ATOM     16  C19 UNL     1      38.238  44.740  47.333  0.00  0.00    +0.000 A 
ATOM     17  S1  UNL     1      41.465  42.574  46.958  0.00  0.00    +0.000 S 
ATOM     18  H10 UNL     1      44.867  45.510  45.071  0.00  0.00    +0.000 HD
ATOM     19  H11 UNL     1      42.636  45.454  45.190  0.00  0.00    +0.000 HD
ATOM     20  H12 UNL     1      39.237  41.140  48.499  0.00  0.00    +0.000 HD
ATOM     21  H13 UNL     1      36.994  42.036  49.024  0.00  0.00    +0.000 HD
ATOM     22  H14 UNL     1      35.322  43.879  48.899  0.00  0.00    +0.000 HD
ATOM     23  H15 UNL     1      34.710  46.148  48.160  0.00  0.00    +0.000 HD
ATOM     24  H16 UNL     1      36.328  47.537  46.893  0.00  0.00    +0.000 HD
ATOM     25  H17 UNL     1      38.575  46.652  46.361  0.00  0.00    +0.000 HD
ENDROOT
BRANCH   1  27
ATOM     26  C7  UNL     1      47.029  44.323  45.033  0.00  0.00    +0.000 C 
ATOM     27  N2  UNL     1      46.028  44.136  44.229  0.00  0.00    +0.000 NA
ATOM     28  H9  UNL     1      46.907  44.782  46.030  0.00  0.00    +0.000 HD
BRANCH  26  32
ATOM     29  C3  UNL     1      51.019  43.085  43.944  0.00  0.00    +0.000 A 
ATOM     30  C4  UNL     1      50.762  43.739  45.164  0.00  0.00    +0.000 A 
ATOM     31  C5  UNL     1      49.471  44.141  45.535  0.00  0.00    +0.000 A 
ATOM     32  C6  UNL     1      48.401  43.907  44.678  0.00  0.00    +0.000 A 
ATOM     33  C20 UNL     1      48.620  43.278  43.455  0.00  0.00    +0.000 A 
ATOM     34  C21 UNL     1      49.917  42.880  43.096  0.00  0.00    +0.000 A 
ATOM     35  H7  UNL     1      51.576  43.977  45.843  0.00  0.00    +0.000 HD
ATOM     36  H8  UNL     1      49.320  44.643  46.487  0.00  0.00    +0.000 HD
ATOM     37  H18 UNL     1      47.798  43.086  42.771  0.00  0.00    +0.000 HD
ATOM     38  H19 UNL     1      50.034  42.385  42.137  0.00  0.00    +0.000 HD
BRANCH  29  39
ATOM     39  N1  UNL     1      52.329  42.708  43.602  0.00  0.00    +0.000 N 
BRANCH  39  40
ATOM     40  C1  UNL     1      52.561  42.483  42.171  0.00  0.00    +0.000 C 
ATOM     41  H1  UNL     1      53.484  41.926  41.982  0.00  0.00    +0.000 HD
ATOM     42  H2  UNL     1      52.672  43.439  41.645  0.00  0.00    +0.000 HD
ATOM     43  H3  UNL     1      51.717  41.950  41.718  0.00  0.00    +0.000 HD
ENDBRANCH  39  40
BRANCH  39  44
ATOM     44  C2  UNL     1      53.445  43.341  44.304  0.00  0.00    +0.000 C 
ATOM     45  H4  UNL     1      53.891  44.142  43.702  0.00  0.00    +0.000 HD
ATOM     46  H5  UNL     1      53.094  43.812  45.229  0.00  0.00    +0.000 HD
ATOM     47  H6  UNL     1      54.215  42.609  44.571  0.00  0.00    +0.000 HD
ENDBRANCH  39  44
ENDBRANCH  29  39
ENDBRANCH  26  32
ENDBRANCH   1  27
TORSDOF 5
ENDMDL
