MODEL 1
REMARK VINA RESULT:    -4.444      0.000      0.000
REMARK INTER + INTRA:         -10.096
REMARK INTER:                  -7.173
REMARK INTRA:                  -2.923
REMARK UNBOUND:                -2.923
REMARK  Name = /home/ubuntu/ubp_medicine_study/real_molecular_docking/ligands_pdbqt/NOVEL_0077.pdb
REMARK  12 active torsions:
REMARK  status: ('A' for Active; 'I' for Inactive)
REMARK    1  A    between atoms: C1_1  and  C2_2
REMARK    2  A    between atoms: C2_2  and  C3_3
REMARK    3  A    between atoms: C3_3  and  N1_4
REMARK    4  A    between atoms: C3_3  and  C4_5
REMARK    5  A    between atoms: N2_7  and  C5_8
REMARK    6  A    between atoms: C10_15  and  C11_16
REMARK    7  A    between atoms: C11_16  and  C12_17
REMARK    8  A    between atoms: C12_17  and  N4_18
REMARK    9  A    between atoms: C15_21  and  C16_22
REMARK   10  A    between atoms: N5_24  and  C17_25
REMARK   11  A    between atoms: C17_25  and  C18_26
REMARK   12  A    between atoms: C17_25  and  C24_32
REMARK                            x       y       z     vdW  Elec       q    Type
REMARK                         _______ _______ _______ _____ _____    ______ ____
ROOT
ATOM      1  C5  UNL     1      39.081  35.917  50.477  0.00  0.00    +0.000 C 
ATOM      2  C6  UNL     1      38.483  36.025  49.051  0.00  0.00    +0.000 C 
ATOM      3  O2  UNL     1      39.188  35.937  48.040  0.00  0.00    +0.000 OA
ATOM      4  N3  UNL     1      37.131  36.268  48.969  0.00  0.00    +0.000 N 
ATOM      5  C7  UNL     1      36.184  36.118  50.062  0.00  0.00    +0.000 C 
ATOM      6  C8  UNL     1      36.263  37.307  51.019  0.00  0.00    +0.000 C 
ATOM      7  C9  UNL     1      37.459  37.204  51.974  0.00  0.00    +0.000 C 
ATOM      8  C10 UNL     1      38.866  37.190  51.338  0.00  0.00    +0.000 C 
ATOM      9  C13 UNL     1      34.831  35.968  49.362  0.00  0.00    +0.000 C 
ATOM     10  C14 UNL     1      35.004  36.699  48.039  0.00  0.00    +0.000 C 
ATOM     11  C15 UNL     1      36.476  36.475  47.682  0.00  0.00    +0.000 C 
ATOM     12  H10 UNL     1      38.626  35.051  50.972  0.00  0.00    +0.000 HD
ATOM     13  H11 UNL     1      36.398  35.191  50.608  0.00  0.00    +0.000 HD
ATOM     14  H12 UNL     1      35.356  37.335  51.635  0.00  0.00    +0.000 HD
ATOM     15  H13 UNL     1      36.296  38.251  50.465  0.00  0.00    +0.000 HD
ATOM     16  H14 UNL     1      37.394  38.014  52.707  0.00  0.00    +0.000 HD
ATOM     17  H15 UNL     1      37.343  36.287  52.568  0.00  0.00    +0.000 HD
ATOM     18  H16 UNL     1      39.562  37.109  52.186  0.00  0.00    +0.000 HD
ATOM     19  H23 UNL     1      33.989  36.345  49.948  0.00  0.00    +0.000 HD
ATOM     20  H24 UNL     1      34.644  34.906  49.158  0.00  0.00    +0.000 HD
ATOM     21  H25 UNL     1      34.783  37.764  48.179  0.00  0.00    +0.000 HD
ATOM     22  H26 UNL     1      34.328  36.322  47.265  0.00  0.00    +0.000 HD
ATOM     23  H27 UNL     1      36.618  35.569  47.082  0.00  0.00    +0.000 HD
ENDROOT
BRANCH   1  26
ATOM     24  C4  UNL     1      40.953  34.332  50.185  0.00  0.00    +0.000 C 
ATOM     25  O1  UNL     1      40.257  33.356  50.453  0.00  0.00    +0.000 OA
ATOM     26  N2  UNL     1      40.512  35.635  50.319  0.00  0.00    +0.000 N 
ATOM     27  H9  UNL     1      41.006  36.303  49.743  0.00  0.00    +0.000 HD
BRANCH  24  28
ATOM     28  C3  UNL     1      42.403  34.193  49.666  0.00  0.00    +0.000 C 
ATOM     29  H6  UNL     1      42.446  34.656  48.673  0.00  0.00    +0.000 HD
BRANCH  28  30
ATOM     30  C2  UNL     1      42.854  32.730  49.582  0.00  0.00    +0.000 C 
ATOM     31  H4  UNL     1      42.681  32.237  50.548  0.00  0.00    +0.000 HD
ATOM     32  H5  UNL     1      42.266  32.179  48.837  0.00  0.00    +0.000 HD
BRANCH  30  33
ATOM     33  C1  UNL     1      44.332  32.592  49.237  0.00  0.00    +0.000 C 
ATOM     34  H1  UNL     1      44.565  33.189  48.351  0.00  0.00    +0.000 HD
ATOM     35  H2  UNL     1      44.586  31.550  49.021  0.00  0.00    +0.000 HD
ATOM     36  H3  UNL     1      44.970  32.943  50.054  0.00  0.00    +0.000 HD
ENDBRANCH  30  33
ENDBRANCH  28  30
BRANCH  28  37
ATOM     37  N1  UNL     1      43.325  34.939  50.552  0.00  0.00    +0.000 NA
ATOM     38  H7  UNL     1      44.281  34.611  50.387  0.00  0.00    +0.000 HD
ATOM     39  H8  UNL     1      43.327  35.931  50.328  0.00  0.00    +0.000 HD
ENDBRANCH  28  37
ENDBRANCH  24  28
ENDBRANCH   1  26
BRANCH  11  40
ATOM     40  C16 UNL     1      36.974  37.717  46.919  0.00  0.00    +0.000 C 
ATOM     41  O3  UNL     1      37.765  37.666  45.980  0.00  0.00    +0.000 OA
ATOM     42  N5  UNL     1      36.514  38.903  47.453  0.00  0.00    +0.000 N 
ATOM     43  H28 UNL     1      35.946  38.894  48.287  0.00  0.00    +0.000 HD
BRANCH  42  44
ATOM     44  C17 UNL     1      37.018  40.195  47.015  0.00  0.00    +0.000 C 
ATOM     45  H29 UNL     1      37.824  40.025  46.288  0.00  0.00    +0.000 HD
BRANCH  44  46
ATOM     46  C18 UNL     1      37.604  40.894  48.241  0.00  0.00    +0.000 A 
ATOM     47  C19 UNL     1      38.868  41.513  48.201  0.00  0.00    +0.000 A 
ATOM     48  C20 UNL     1      39.377  42.165  49.325  0.00  0.00    +0.000 A 
ATOM     49  C21 UNL     1      38.629  42.216  50.500  0.00  0.00    +0.000 A 
ATOM     50  C22 UNL     1      37.371  41.615  50.552  0.00  0.00    +0.000 A 
ATOM     51  C23 UNL     1      36.860  40.961  49.430  0.00  0.00    +0.000 A 
ATOM     52  H30 UNL     1      39.468  41.479  47.293  0.00  0.00    +0.000 HD
ATOM     53  H31 UNL     1      40.356  42.636  49.283  0.00  0.00    +0.000 HD
ATOM     54  H32 UNL     1      39.023  42.727  51.374  0.00  0.00    +0.000 HD
ATOM     55  H33 UNL     1      36.784  41.659  51.466  0.00  0.00    +0.000 HD
ATOM     56  H34 UNL     1      35.872  40.509  49.485  0.00  0.00    +0.000 HD
ENDBRANCH  44  46
BRANCH  44  57
ATOM     57  C24 UNL     1      35.942  40.979  46.260  0.00  0.00    +0.000 A 
ATOM     58  C25 UNL     1      36.261  42.054  45.411  0.00  0.00    +0.000 A 
ATOM     59  C26 UNL     1      35.267  42.732  44.699  0.00  0.00    +0.000 A 
ATOM     60  C27 UNL     1      33.938  42.334  44.802  0.00  0.00    +0.000 A 
ATOM     61  C28 UNL     1      33.602  41.250  45.607  0.00  0.00    +0.000 A 
ATOM     62  C29 UNL     1      34.595  40.573  46.320  0.00  0.00    +0.000 A 
ATOM     63  H35 UNL     1      37.292  42.380  45.285  0.00  0.00    +0.000 HD
ATOM     64  H36 UNL     1      35.536  43.566  44.056  0.00  0.00    +0.000 HD
ATOM     65  H37 UNL     1      33.166  42.859  44.245  0.00  0.00    +0.000 HD
ATOM     66  H38 UNL     1      32.568  40.920  45.673  0.00  0.00    +0.000 HD
ATOM     67  H39 UNL     1      34.304  39.708  46.917  0.00  0.00    +0.000 HD
ENDBRANCH  44  57
ENDBRANCH  42  44
ENDBRANCH  11  40
BRANCH   8  68
ATOM     68  C11 UNL     1      39.259  38.484  50.584  0.00  0.00    +0.000 C 
ATOM     69  H17 UNL     1      39.363  38.243  49.519  0.00  0.00    +0.000 HD
ATOM     70  H18 UNL     1      38.461  39.228  50.645  0.00  0.00    +0.000 HD
BRANCH  68  71
ATOM     71  C12 UNL     1      40.582  39.127  51.013  0.00  0.00    +0.000 C 
ATOM     72  H19 UNL     1      40.372  40.123  51.422  0.00  0.00    +0.000 HD
ATOM     73  H20 UNL     1      41.240  39.263  50.148  0.00  0.00    +0.000 HD
BRANCH  71  74
ATOM     74  N4  UNL     1      41.273  38.357  52.042  0.00  0.00    +0.000 NA
ATOM     75  H21 UNL     1      42.263  38.610  52.038  0.00  0.00    +0.000 HD
ATOM     76  H22 UNL     1      41.237  37.368  51.800  0.00  0.00    +0.000 HD
ENDBRANCH  71  74
ENDBRANCH  68  71
ENDBRANCH   8  68
TORSDOF 12
ENDMDL
