MODEL 1
REMARK VINA RESULT:     0.000      0.000      0.000
REMARK INTER + INTRA:          -2.549
REMARK INTER:                   0.000
REMARK INTRA:                  -2.549
REMARK UNBOUND:                -2.549
REMARK  Name = /home/ubuntu/ubp_medicine_study/real_molecular_docking/ligands_pdbqt/NOVEL_0094.pdb
REMARK  14 active torsions:
REMARK  status: ('A' for Active; 'I' for Inactive)
REMARK    1  A    between atoms: C3_5  and  C4_6
REMARK    2  A    between atoms: C4_6  and  O2_7
REMARK    3  A    between atoms: C4_6  and  C5_8
REMARK    4  A    between atoms: C5_8  and  O3_9
REMARK    5  A    between atoms: C5_8  and  C6_10
REMARK    6  A    between atoms: C6_10  and  O4_11
REMARK    7  A    between atoms: C6_10  and  C7_12
REMARK    8  A    between atoms: C7_12  and  O5_13
REMARK    9  A    between atoms: C7_12  and  C8_14
REMARK   10  A    between atoms: C8_14  and  O6_15
REMARK   11  A    between atoms: N1_16  and  C9_17
REMARK   12  A    between atoms: C12_20  and  S2_21
REMARK   13  A    between atoms: S2_21  and  N2_24
REMARK   14  A    between atoms: N2_24  and  C13_25
REMARK                            x       y       z     vdW  Elec       q    Type
REMARK                         _______ _______ _______ _____ _____    ______ ____
ROOT
ATOM      1  O1  UNL     1      43.155  47.908  49.687  0.00  0.00    +0.000 OA
ATOM      2  C1  UNL     1      43.397  46.851  50.265  0.00  0.00    +0.000 C 
ATOM      3  C2  UNL     1      42.474  46.360  51.361  0.00  0.00    +0.000 C 
ATOM      4  S1  UNL     1      43.003  44.694  51.773  0.00  0.00    +0.000 S 
ATOM      5  C3  UNL     1      44.684  44.996  51.123  0.00  0.00    +0.000 C 
ATOM      6  N1  UNL     1      44.481  45.980  50.052  0.00  0.00    +0.000 N 
ATOM      7  H1  UNL     1      42.558  47.016  52.232  0.00  0.00    +0.000 HD
ATOM      8  H2  UNL     1      41.444  46.344  50.997  0.00  0.00    +0.000 HD
ATOM      9  H3  UNL     1      45.041  44.051  50.704  0.00  0.00    +0.000 HD
ENDROOT
BRANCH   6  10
ATOM     10  C9  UNL     1      45.368  46.058  48.921  0.00  0.00    +0.000 A 
ATOM     11  C10 UNL     1      46.273  47.124  48.763  0.00  0.00    +0.000 A 
ATOM     12  C11 UNL     1      47.153  47.196  47.674  0.00  0.00    +0.000 A 
ATOM     13  C12 UNL     1      47.140  46.192  46.712  0.00  0.00    +0.000 A 
ATOM     14  C18 UNL     1      46.283  45.107  46.851  0.00  0.00    +0.000 A 
ATOM     15  C19 UNL     1      45.409  45.046  47.945  0.00  0.00    +0.000 A 
ATOM     16  H15 UNL     1      46.323  47.948  49.470  0.00  0.00    +0.000 HD
ATOM     17  H16 UNL     1      47.831  48.043  47.590  0.00  0.00    +0.000 HD
ATOM     18  H22 UNL     1      46.283  44.296  46.126  0.00  0.00    +0.000 HD
ATOM     19  H23 UNL     1      44.781  44.162  48.006  0.00  0.00    +0.000 HD
BRANCH  13  20
ATOM     20  S2  UNL     1      48.269  46.250  45.339  0.00  0.00    +0.000 S 
ATOM     21  O7  UNL     1      47.994  45.114  44.484  0.00  0.00    +0.000 OA
ATOM     22  O8  UNL     1      48.231  47.597  44.811  0.00  0.00    +0.000 OA
BRANCH  20  23
ATOM     23  N2  UNL     1      49.779  46.057  46.059  0.00  0.00    +0.000 N 
ATOM     24  H17 UNL     1      49.752  46.343  47.037  0.00  0.00    +0.000 HD
BRANCH  23  25
ATOM     25  C13 UNL     1      50.367  44.784  45.944  0.00  0.00    +0.000 A 
ATOM     26  C14 UNL     1      51.267  44.452  44.948  0.00  0.00    +0.000 A 
ATOM     27  C15 UNL     1      51.755  43.152  44.919  0.00  0.00    +0.000 A 
ATOM     28  C16 UNL     1      51.331  42.247  45.886  0.00  0.00    +0.000 A 
ATOM     29  C17 UNL     1      50.434  42.685  46.851  0.00  0.00    +0.000 A 
ATOM     30  N3  UNL     1      49.942  43.943  46.903  0.00  0.00    +0.000 NA
ATOM     31  H18 UNL     1      51.584  45.183  44.208  0.00  0.00    +0.000 HD
ATOM     32  H19 UNL     1      52.461  42.846  44.154  0.00  0.00    +0.000 HD
ATOM     33  H20 UNL     1      51.693  41.223  45.893  0.00  0.00    +0.000 HD
ATOM     34  H21 UNL     1      50.078  42.015  47.631  0.00  0.00    +0.000 HD
ENDBRANCH  23  25
ENDBRANCH  20  23
ENDBRANCH  13  20
ENDBRANCH   6  10
BRANCH   5  35
ATOM     35  C4  UNL     1      45.626  45.516  52.253  0.00  0.00    +0.000 C 
ATOM     36  H4  UNL     1      45.158  45.329  53.230  0.00  0.00    +0.000 HD
BRANCH  35  37
ATOM     37  O2  UNL     1      45.768  46.948  52.194  0.00  0.00    +0.000 OA
ATOM     38  H5  UNL     1      46.718  47.094  52.011  0.00  0.00    +0.000 HD
ENDBRANCH  35  37
BRANCH  35  39
ATOM     39  C5  UNL     1      47.049  44.893  52.292  0.00  0.00    +0.000 C 
ATOM     40  H6  UNL     1      46.969  43.817  52.099  0.00  0.00    +0.000 HD
BRANCH  39  41
ATOM     41  O3  UNL     1      47.508  45.036  53.659  0.00  0.00    +0.000 OA
ATOM     42  H7  UNL     1      48.431  45.387  53.599  0.00  0.00    +0.000 HD
ENDBRANCH  39  41
BRANCH  39  43
ATOM     43  C6  UNL     1      48.088  45.530  51.331  0.00  0.00    +0.000 C 
ATOM     44  H8  UNL     1      47.603  46.106  50.541  0.00  0.00    +0.000 HD
BRANCH  43  45
ATOM     45  O4  UNL     1      48.901  46.452  52.067  0.00  0.00    +0.000 OA
ATOM     46  H9  UNL     1      48.539  46.455  52.976  0.00  0.00    +0.000 HD
ENDBRANCH  43  45
BRANCH  43  47
ATOM     47  C7  UNL     1      49.025  44.494  50.671  0.00  0.00    +0.000 C 
ATOM     48  H10 UNL     1      49.191  43.653  51.356  0.00  0.00    +0.000 HD
BRANCH  47  49
ATOM     49  C8  UNL     1      50.374  45.084  50.245  0.00  0.00    +0.000 C 
ATOM     50  H12 UNL     1      50.863  45.614  51.068  0.00  0.00    +0.000 HD
ATOM     51  H13 UNL     1      51.043  44.309  49.858  0.00  0.00    +0.000 HD
BRANCH  49  52
ATOM     52  O6  UNL     1      50.127  46.046  49.218  0.00  0.00    +0.000 OA
ATOM     53  H14 UNL     1      49.165  46.045  49.045  0.00  0.00    +0.000 HD
ENDBRANCH  49  52
ENDBRANCH  47  49
BRANCH  47  54
ATOM     54  O5  UNL     1      48.391  43.927  49.503  0.00  0.00    +0.000 OA
ATOM     55  H11 UNL     1      47.495  44.332  49.500  0.00  0.00    +0.000 HD
ENDBRANCH  47  54
ENDBRANCH  43  47
ENDBRANCH  39  43
ENDBRANCH  35  39
ENDBRANCH   5  35
TORSDOF 14
ENDMDL
