MODEL 1
REMARK VINA RESULT:    -2.250      0.000      0.000
REMARK INTER + INTRA:          -2.245
REMARK INTER:                  -2.777
REMARK INTRA:                   0.532
REMARK UNBOUND:                 0.532
REMARK  Name = /home/ubuntu/ubp_medicine_study/real_molecular_docking/ligands_pdbqt/NOVEL_0069.pdb
REMARK  5 active torsions:
REMARK  status: ('A' for Active; 'I' for Inactive)
REMARK    1  A    between atoms: C1_1  and  N1_2
REMARK    2  A    between atoms: N3_9  and  C6_10
REMARK    3  A    between atoms: C6_10  and  C7_11
REMARK    4  A    between atoms: C9_16  and  C10_17
REMARK    5  A    between atoms: N6_26  and  C17_27
REMARK                            x       y       z     vdW  Elec       q    Type
REMARK                         _______ _______ _______ _____ _____    ______ ____
ROOT
ATOM      1  C6  UNL     1      35.495  28.134  30.273  0.00  0.00    +0.000 C 
ATOM      2  H5  UNL     1      35.413  28.841  31.111  0.00  0.00    +0.000 HD
ATOM      3  H6  UNL     1      35.652  27.140  30.706  0.00  0.00    +0.000 HD
ENDROOT
BRANCH   1  11
ATOM      4  N1  UNL     1      31.194  28.853  31.531  0.00  0.00    +0.000 N 
ATOM      5  C2  UNL     1      32.575  28.709  31.408  0.00  0.00    +0.000 A 
ATOM      6  O1  UNL     1      33.387  28.831  32.322  0.00  0.00    +0.000 OA
ATOM      7  C3  UNL     1      32.990  28.377  30.083  0.00  0.00    +0.000 A 
ATOM      8  C4  UNL     1      32.130  28.218  29.042  0.00  0.00    +0.000 A 
ATOM      9  N2  UNL     1      32.783  27.898  27.881  0.00  0.00    +0.000 NA
ATOM     10  C5  UNL     1      34.064  27.877  28.215  0.00  0.00    +0.000 A 
ATOM     11  N3  UNL     1      34.236  28.147  29.552  0.00  0.00    +0.000 N 
ATOM     12  N6  UNL     1      30.769  28.360  29.212  0.00  0.00    +0.000 N 
ATOM     13  C18 UNL     1      30.257  28.659  30.485  0.00  0.00    +0.000 A 
ATOM     14  O3  UNL     1      29.043  28.748  30.701  0.00  0.00    +0.000 OA
ATOM     15  H4  UNL     1      34.890  27.672  27.543  0.00  0.00    +0.000 HD
BRANCH   4  16
ATOM     16  C1  UNL     1      30.640  29.165  32.841  0.00  0.00    +0.000 C 
ATOM     17  H1  UNL     1      31.446  29.512  33.511  0.00  0.00    +0.000 HD
ATOM     18  H2  UNL     1      29.909  29.984  32.722  0.00  0.00    +0.000 HD
ATOM     19  H3  UNL     1      30.140  28.310  33.305  0.00  0.00    +0.000 HD
ENDBRANCH   4  16
BRANCH  12  20
ATOM     20  C17 UNL     1      29.872  28.146  28.085  0.00  0.00    +0.000 C 
ATOM     21  H13 UNL     1      28.889  28.558  28.336  0.00  0.00    +0.000 HD
ATOM     22  H14 UNL     1      29.781  27.076  27.894  0.00  0.00    +0.000 HD
ATOM     23  H15 UNL     1      30.238  28.646  27.181  0.00  0.00    +0.000 HD
ENDBRANCH  12  20
ENDBRANCH   1  11
BRANCH   1  24
ATOM     24  C7  UNL     1      36.661  28.460  29.360  0.00  0.00    +0.000 C 
ATOM     25  O2  UNL     1      36.464  28.676  28.169  0.00  0.00    +0.000 OA
ATOM     26  N4  UNL     1      37.876  28.441  30.010  0.00  0.00    +0.000 N 
ATOM     27  C8  UNL     1      39.118  28.672  29.468  0.00  0.00    +0.000 A 
ATOM     28  N5  UNL     1      40.212  28.444  30.163  0.00  0.00    +0.000 NA
ATOM     29  C9  UNL     1      41.332  28.737  29.393  0.00  0.00    +0.000 A 
ATOM     30  C16 UNL     1      41.045  29.204  28.122  0.00  0.00    +0.000 A 
ATOM     31  S1  UNL     1      39.345  29.262  27.888  0.00  0.00    +0.000 S 
ATOM     32  H7  UNL     1      37.930  28.189  30.992  0.00  0.00    +0.000 HD
ATOM     33  H12 UNL     1      41.713  29.488  27.324  0.00  0.00    +0.000 HD
BRANCH  29  34
ATOM     34  C10 UNL     1      42.682  28.513  29.918  0.00  0.00    +0.000 A 
ATOM     35  C11 UNL     1      42.994  28.667  31.279  0.00  0.00    +0.000 A 
ATOM     36  C12 UNL     1      44.308  28.471  31.742  0.00  0.00    +0.000 A 
ATOM     37  C13 UNL     1      45.319  28.119  30.845  0.00  0.00    +0.000 A 
ATOM     38 BR1  UNL     1      47.095  27.889  31.471  0.00  0.00    +0.000 Br
ATOM     39  C14 UNL     1      45.022  27.952  29.493  0.00  0.00    +0.000 A 
ATOM     40  C15 UNL     1      43.710  28.142  29.035  0.00  0.00    +0.000 A 
ATOM     41  H8  UNL     1      42.223  28.938  32.003  0.00  0.00    +0.000 HD
ATOM     42  H9  UNL     1      44.531  28.603  32.798  0.00  0.00    +0.000 HD
ATOM     43  H10 UNL     1      45.795  27.687  28.785  0.00  0.00    +0.000 HD
ATOM     44  H11 UNL     1      43.497  28.011  27.974  0.00  0.00    +0.000 HD
ENDBRANCH  29  34
ENDBRANCH   1  24
TORSDOF 5
ENDMDL
