MODEL 1
REMARK VINA RESULT:     0.000      0.000      0.000
REMARK INTER + INTRA:          -1.241
REMARK INTER:                   0.000
REMARK INTRA:                  -1.241
REMARK UNBOUND:                -1.241
REMARK  Name = /home/ubuntu/ubp_medicine_study/real_molecular_docking/ligands_pdbqt/NOVEL_0018.pdb
REMARK  6 active torsions:
REMARK  status: ('A' for Active; 'I' for Inactive)
REMARK    1  A    between atoms: N5_11  and  C6_12
REMARK    2  A    between atoms: C7_14  and  C8_15
REMARK    3  A    between atoms: C8_15  and  S1_16
REMARK    4  A    between atoms: S1_16  and  C9_17
REMARK    5  A    between atoms: C13_22  and  O2_23
REMARK    6  A    between atoms: C14_24  and  O3_25
REMARK                            x       y       z     vdW  Elec       q    Type
REMARK                         _______ _______ _______ _____ _____    ______ ____
ROOT
ATOM      1  C6  UNL     1      52.183  51.738  49.360  0.00  0.00    +0.000 C 
ATOM      2  O1  UNL     1      52.144  53.142  49.008  0.00  0.00    +0.000 OA
ATOM      3  C7  UNL     1      53.373  53.486  48.322  0.00  0.00    +0.000 C 
ATOM      4  C13 UNL     1      54.307  52.291  48.513  0.00  0.00    +0.000 C 
ATOM      5  C14 UNL     1      53.337  51.123  48.563  0.00  0.00    +0.000 C 
ATOM      6  H4  UNL     1      52.339  51.666  50.443  0.00  0.00    +0.000 HD
ATOM      7  H5  UNL     1      53.784  54.381  48.801  0.00  0.00    +0.000 HD
ATOM      8  H16 UNL     1      55.078  52.183  47.745  0.00  0.00    +0.000 HD
ATOM      9  H18 UNL     1      53.016  50.846  47.552  0.00  0.00    +0.000 HD
ENDROOT
BRANCH   1  20
ATOM     10  N1  UNL     1      47.287  48.242  48.749  0.00  0.00    +0.000 N 
ATOM     11  C1  UNL     1      48.545  48.550  49.248  0.00  0.00    +0.000 A 
ATOM     12  N2  UNL     1      49.154  47.648  50.048  0.00  0.00    +0.000 NA
ATOM     13  C2  UNL     1      50.371  47.965  50.535  0.00  0.00    +0.000 A 
ATOM     14 CL1  UNL     1      51.085  46.784  51.549  0.00  0.00    +0.000 Cl
ATOM     15  N3  UNL     1      51.110  49.074  50.335  0.00  0.00    +0.000 NA
ATOM     16  C3  UNL     1      50.467  49.922  49.517  0.00  0.00    +0.000 A 
ATOM     17  C4  UNL     1      49.218  49.747  48.944  0.00  0.00    +0.000 A 
ATOM     18  N4  UNL     1      48.886  50.826  48.153  0.00  0.00    +0.000 NA
ATOM     19  C5  UNL     1      49.905  51.654  48.268  0.00  0.00    +0.000 A 
ATOM     20  N5  UNL     1      50.897  51.138  49.060  0.00  0.00    +0.000 N 
ATOM     21  H1  UNL     1      47.030  48.774  47.925  0.00  0.00    +0.000 HD
ATOM     22  H2  UNL     1      47.095  47.249  48.752  0.00  0.00    +0.000 HD
ATOM     23  H3  UNL     1      49.973  52.629  47.804  0.00  0.00    +0.000 HD
ENDBRANCH   1  20
BRANCH   3  24
ATOM     24  C8  UNL     1      53.081  53.743  46.834  0.00  0.00    +0.000 C 
ATOM     25  H6  UNL     1      52.275  53.088  46.491  0.00  0.00    +0.000 HD
ATOM     26  H7  UNL     1      52.790  54.786  46.674  0.00  0.00    +0.000 HD
BRANCH  24  27
ATOM     27  S1  UNL     1      54.557  53.411  45.809  0.00  0.00    +0.000 S 
BRANCH  27  28
ATOM     28  C9  UNL     1      53.912  52.042  44.793  0.00  0.00    +0.000 C 
ATOM     29  C10 UNL     1      54.621  50.721  45.085  0.00  0.00    +0.000 C 
ATOM     30  C11 UNL     1      53.533  49.656  44.959  0.00  0.00    +0.000 C 
ATOM     31  N6  UNL     1      52.330  50.358  44.504  0.00  0.00    +0.000 NA
ATOM     32  C12 UNL     1      52.446  51.712  45.046  0.00  0.00    +0.000 C 
ATOM     33  H8  UNL     1      54.066  52.294  43.735  0.00  0.00    +0.000 HD
ATOM     34  H9  UNL     1      55.053  50.682  46.094  0.00  0.00    +0.000 HD
ATOM     35  H10 UNL     1      55.430  50.549  44.366  0.00  0.00    +0.000 HD
ATOM     36  H11 UNL     1      53.352  49.188  45.934  0.00  0.00    +0.000 HD
ATOM     37  H12 UNL     1      53.814  48.870  44.253  0.00  0.00    +0.000 HD
ATOM     38  H13 UNL     1      51.493  49.894  44.853  0.00  0.00    +0.000 HD
ATOM     39  H14 UNL     1      51.771  52.399  44.525  0.00  0.00    +0.000 HD
ATOM     40  H15 UNL     1      52.197  51.714  46.114  0.00  0.00    +0.000 HD
ENDBRANCH  27  28
ENDBRANCH  24  27
ENDBRANCH   3  24
BRANCH   4  41
ATOM     41  O2  UNL     1      54.973  52.356  49.786  0.00  0.00    +0.000 OA
ATOM     42  H17 UNL     1      54.444  52.928  50.373  0.00  0.00    +0.000 HD
ENDBRANCH   4  41
BRANCH   5  43
ATOM     43  O3  UNL     1      53.937  49.984  49.168  0.00  0.00    +0.000 OA
ATOM     44  H19 UNL     1      54.780  49.837  48.689  0.00  0.00    +0.000 HD
ENDBRANCH   5  43
TORSDOF 6
ENDMDL
