MODEL 1
REMARK VINA RESULT:    -7.224      0.000      0.000
REMARK INTER + INTRA:         -14.189
REMARK INTER:                 -13.559
REMARK INTRA:                  -0.630
REMARK UNBOUND:                -0.630
REMARK  Name = /home/ubuntu/ubp_medicine_study/real_molecular_docking/ligands_pdbqt/NOVEL_0037.pdb
REMARK  17 active torsions:
REMARK  status: ('A' for Active; 'I' for Inactive)
REMARK    1  A    between atoms: C1_1  and  C2_2
REMARK    2  A    between atoms: C2_2  and  C3_3
REMARK    3  A    between atoms: C3_3  and  C4_4
REMARK    4  A    between atoms: C4_4  and  C5_5
REMARK    5  A    between atoms: C4_4  and  C6_6
REMARK    6  A    between atoms: C6_6  and  O1_7
REMARK    7  A    between atoms: C6_6  and  C16_18
REMARK    8  A    between atoms: O1_7  and  C7_8
REMARK    9  A    between atoms: C7_8  and  C8_10
REMARK   10  A    between atoms: C9_11  and  C10_12
REMARK   11  A    between atoms: C16_18  and  C17_19
REMARK   12  A    between atoms: C16_18  and  C18_20
REMARK   13  A    between atoms: C18_20  and  O3_21
REMARK   14  A    between atoms: C18_20  and  C19_22
REMARK   15  A    between atoms: C19_22  and  C20_23
REMARK   16  A    between atoms: C21_24  and  C22_25
REMARK   17  A    between atoms: C23_26  and  C24_27
REMARK                            x       y       z     vdW  Elec       q    Type
REMARK                         _______ _______ _______ _____ _____    ______ ____
ROOT
ATOM      1  C6  UNL     1      35.436  30.834  27.847  0.00  0.00    +0.000 C 
ATOM      2  H12 UNL     1      35.639  31.349  26.902  0.00  0.00    +0.000 HD
ENDROOT
BRANCH   1   3
ATOM      3  C4  UNL     1      36.788  30.350  28.467  0.00  0.00    +0.000 C 
ATOM      4  H8  UNL     1      36.576  29.454  29.066  0.00  0.00    +0.000 HD
BRANCH   3   5
ATOM      5  C5  UNL     1      37.417  31.348  29.455  0.00  0.00    +0.000 C 
ATOM      6  H9  UNL     1      36.656  31.780  30.115  0.00  0.00    +0.000 HD
ATOM      7  H10 UNL     1      38.149  30.846  30.098  0.00  0.00    +0.000 HD
ATOM      8  H11 UNL     1      37.924  32.169  28.940  0.00  0.00    +0.000 HD
ENDBRANCH   3   5
BRANCH   3   9
ATOM      9  C3  UNL     1      37.826  29.947  27.388  0.00  0.00    +0.000 C 
ATOM     10  H6  UNL     1      37.284  29.550  26.519  0.00  0.00    +0.000 HD
ATOM     11  H7  UNL     1      38.359  30.832  27.029  0.00  0.00    +0.000 HD
BRANCH   9  12
ATOM     12  C2  UNL     1      38.855  28.900  27.832  0.00  0.00    +0.000 C 
ATOM     13  H4  UNL     1      39.173  29.078  28.864  0.00  0.00    +0.000 HD
ATOM     14  H5  UNL     1      38.413  27.898  27.796  0.00  0.00    +0.000 HD
BRANCH  12  15
ATOM     15  C1  UNL     1      40.083  28.913  26.934  0.00  0.00    +0.000 C 
ATOM     16  H1  UNL     1      41.002  28.952  27.527  0.00  0.00    +0.000 HD
ATOM     17  H2  UNL     1      40.112  28.009  26.319  0.00  0.00    +0.000 HD
ATOM     18  H3  UNL     1      40.071  29.779  26.265  0.00  0.00    +0.000 HD
ENDBRANCH  12  15
ENDBRANCH   9  12
ENDBRANCH   3   9
ENDBRANCH   1   3
BRANCH   1  19
ATOM     19  C16 UNL     1      34.390  29.698  27.541  0.00  0.00    +0.000 C 
ATOM     20  H20 UNL     1      33.905  29.446  28.495  0.00  0.00    +0.000 HD
BRANCH  19  21
ATOM     21  C17 UNL     1      35.033  28.423  26.984  0.00  0.00    +0.000 C 
ATOM     22  H21 UNL     1      35.233  28.496  25.913  0.00  0.00    +0.000 HD
ATOM     23  H22 UNL     1      36.010  28.234  27.438  0.00  0.00    +0.000 HD
ATOM     24  H23 UNL     1      34.397  27.550  27.164  0.00  0.00    +0.000 HD
ENDBRANCH  19  21
BRANCH  19  25
ATOM     25  C18 UNL     1      33.273  30.227  26.579  0.00  0.00    +0.000 C 
ATOM     26  H24 UNL     1      33.332  31.322  26.541  0.00  0.00    +0.000 HD
BRANCH  25  27
ATOM     27  C19 UNL     1      33.336  29.656  25.146  0.00  0.00    +0.000 C 
ATOM     28  H26 UNL     1      34.360  29.323  24.930  0.00  0.00    +0.000 HD
ATOM     29  H27 UNL     1      33.071  30.416  24.403  0.00  0.00    +0.000 HD
BRANCH  27  30
ATOM     30  C20 UNL     1      32.366  28.518  24.943  0.00  0.00    +0.000 C 
ATOM     31  C21 UNL     1      32.334  27.747  23.845  0.00  0.00    +0.000 C 
ATOM     32  H28 UNL     1      31.641  28.361  25.738  0.00  0.00    +0.000 HD
ATOM     33  H29 UNL     1      33.069  27.890  23.054  0.00  0.00    +0.000 HD
BRANCH  31  34
ATOM     34  C22 UNL     1      31.405  26.660  23.651  0.00  0.00    +0.000 C 
ATOM     35  C23 UNL     1      31.444  25.687  22.726  0.00  0.00    +0.000 C 
ATOM     36  H30 UNL     1      30.592  26.639  24.377  0.00  0.00    +0.000 HD
ATOM     37  H31 UNL     1      30.652  24.947  22.723  0.00  0.00    +0.000 HD
BRANCH  35  38
ATOM     38  C24 UNL     1      32.516  25.477  21.724  0.00  0.00    +0.000 C 
ATOM     39  N1  UNL     1      32.153  25.844  20.465  0.00  0.00    +0.000 N 
ATOM     40  O4  UNL     1      33.619  25.010  21.957  0.00  0.00    +0.000 OA
ATOM     41  H32 UNL     1      31.279  26.292  20.236  0.00  0.00    +0.000 HD
ATOM     42  H33 UNL     1      32.852  25.742  19.738  0.00  0.00    +0.000 HD
ENDBRANCH  35  38
ENDBRANCH  31  34
ENDBRANCH  27  30
ENDBRANCH  25  27
BRANCH  25  43
ATOM     43  O3  UNL     1      31.991  29.886  27.124  0.00  0.00    +0.000 OA
ATOM     44  H25 UNL     1      32.144  29.255  27.848  0.00  0.00    +0.000 HD
ENDBRANCH  25  43
ENDBRANCH  19  25
ENDBRANCH   1  19
BRANCH   1  45
ATOM     45  O1  UNL     1      34.810  31.735  28.791  0.00  0.00    +0.000 OA
BRANCH  45  46
ATOM     46  C7  UNL     1      34.864  33.060  28.511  0.00  0.00    +0.000 C 
ATOM     47  O2  UNL     1      34.920  33.579  27.407  0.00  0.00    +0.000 OA
BRANCH  46  48
ATOM     48  C8  UNL     1      34.892  33.786  29.797  0.00  0.00    +0.000 C 
ATOM     49  C9  UNL     1      34.011  34.771  30.032  0.00  0.00    +0.000 C 
ATOM     50  H13 UNL     1      35.640  33.476  30.515  0.00  0.00    +0.000 HD
ATOM     51  H14 UNL     1      33.261  35.022  29.283  0.00  0.00    +0.000 HD
BRANCH  49  52
ATOM     52  C10 UNL     1      33.965  35.551  31.274  0.00  0.00    +0.000 A 
ATOM     53  C11 UNL     1      34.425  35.043  32.497  0.00  0.00    +0.000 A 
ATOM     54  C12 UNL     1      34.392  35.830  33.652  0.00  0.00    +0.000 A 
ATOM     55  C13 UNL     1      33.910  37.136  33.594  0.00  0.00    +0.000 A 
ATOM     56  C14 UNL     1      33.466  37.658  32.382  0.00  0.00    +0.000 A 
ATOM     57  C15 UNL     1      33.498  36.871  31.227  0.00  0.00    +0.000 A 
ATOM     58  H15 UNL     1      34.825  34.035  32.566  0.00  0.00    +0.000 HD
ATOM     59  H16 UNL     1      34.749  35.423  34.595  0.00  0.00    +0.000 HD
ATOM     60  H17 UNL     1      33.886  37.748  34.493  0.00  0.00    +0.000 HD
ATOM     61  H18 UNL     1      33.093  38.677  32.333  0.00  0.00    +0.000 HD
ATOM     62  H19 UNL     1      33.149  37.299  30.290  0.00  0.00    +0.000 HD
ENDBRANCH  49  52
ENDBRANCH  46  48
ENDBRANCH  45  46
ENDBRANCH   1  45
TORSDOF 17
ENDMDL
