MODEL 1
REMARK VINA RESULT:    -4.805      0.000      0.000
REMARK INTER + INTRA:          -8.595
REMARK INTER:                  -7.053
REMARK INTRA:                  -1.543
REMARK UNBOUND:                -1.543
REMARK  Name = /home/ubuntu/ubp_medicine_study/real_molecular_docking/ligands_pdbqt/NOVEL_0031.pdb
REMARK  9 active torsions:
REMARK  status: ('A' for Active; 'I' for Inactive)
REMARK    1  A    between atoms: C1_1  and  C2_2
REMARK    2  A    between atoms: N1_4  and  C3_5
REMARK    3  A    between atoms: C3_5  and  C4_6
REMARK    4  A    between atoms: C4_6  and  C5_7
REMARK    5  A    between atoms: C5_7  and  N2_8
REMARK    6  A    between atoms: C5_7  and  C12_19
REMARK    7  A    between atoms: N2_8  and  S1_9
REMARK    8  A    between atoms: S1_9  and  C6_12
REMARK    9  A    between atoms: N3_21  and  O5_22
REMARK                            x       y       z     vdW  Elec       q    Type
REMARK                         _______ _______ _______ _____ _____    ______ ____
ROOT
ATOM      1  C5  UNL     1      32.719  40.802  38.534  0.00  0.00    +0.000 C 
ATOM      2  H9  UNL     1      31.814  40.330  38.134  0.00  0.00    +0.000 HD
ENDROOT
BRANCH   1   3
ATOM      3  C12 UNL     1      32.564  42.323  38.457  0.00  0.00    +0.000 C 
ATOM      4  O4  UNL     1      33.483  43.063  38.100  0.00  0.00    +0.000 OA
ATOM      5  N3  UNL     1      31.311  42.801  38.771  0.00  0.00    +0.000 N 
ATOM      6  H15 UNL     1      30.749  42.336  39.478  0.00  0.00    +0.000 HD
BRANCH   5   7
ATOM      7  O5  UNL     1      31.215  44.217  38.783  0.00  0.00    +0.000 OA
ATOM      8  H16 UNL     1      30.864  44.424  37.888  0.00  0.00    +0.000 HD
ENDBRANCH   5   7
ENDBRANCH   1   3
BRANCH   1   9
ATOM      9  C4  UNL     1      33.891  40.312  37.675  0.00  0.00    +0.000 C 
ATOM     10  H7  UNL     1      34.144  41.096  36.951  0.00  0.00    +0.000 HD
ATOM     11  H8  UNL     1      33.564  39.439  37.095  0.00  0.00    +0.000 HD
BRANCH   9  12
ATOM     12  C3  UNL     1      35.162  39.950  38.443  0.00  0.00    +0.000 C 
ATOM     13  H5  UNL     1      34.934  39.161  39.170  0.00  0.00    +0.000 HD
ATOM     14  H6  UNL     1      35.947  39.567  37.784  0.00  0.00    +0.000 HD
BRANCH  12  17
ATOM     15  C2  UNL     1      36.915  41.620  38.851  0.00  0.00    +0.000 C 
ATOM     16  O1  UNL     1      37.669  41.139  38.011  0.00  0.00    +0.000 OA
ATOM     17  N1  UNL     1      35.692  41.080  39.176  0.00  0.00    +0.000 N 
ATOM     18  H4  UNL     1      35.040  41.648  39.707  0.00  0.00    +0.000 HD
BRANCH  15  19
ATOM     19  C1  UNL     1      37.258  42.873  39.612  0.00  0.00    +0.000 C 
ATOM     20  H1  UNL     1      36.337  43.325  39.990  0.00  0.00    +0.000 HD
ATOM     21  H2  UNL     1      37.763  43.573  38.939  0.00  0.00    +0.000 HD
ATOM     22  H3  UNL     1      37.925  42.665  40.453  0.00  0.00    +0.000 HD
ENDBRANCH  15  19
ENDBRANCH  12  17
ENDBRANCH   9  12
ENDBRANCH   1   9
BRANCH   1  23
ATOM     23  N2  UNL     1      32.901  40.426  39.964  0.00  0.00    +0.000 NA
ATOM     24  H10 UNL     1      33.132  41.237  40.556  0.00  0.00    +0.000 HD
BRANCH  23  25
ATOM     25  S1  UNL     1      31.598  39.619  40.684  0.00  0.00    +0.000 S 
ATOM     26  O2  UNL     1      32.001  39.325  42.038  0.00  0.00    +0.000 OA
ATOM     27  O3  UNL     1      30.392  40.350  40.368  0.00  0.00    +0.000 OA
BRANCH  25  28
ATOM     28  C6  UNL     1      31.604  38.092  39.779  0.00  0.00    +0.000 A 
ATOM     29  C7  UNL     1      30.432  37.638  39.165  0.00  0.00    +0.000 A 
ATOM     30  C8  UNL     1      30.451  36.434  38.460  0.00  0.00    +0.000 A 
ATOM     31  C9  UNL     1      31.632  35.693  38.379  0.00  0.00    +0.000 A 
ATOM     32 BR1  UNL     1      31.651  34.064  37.421  0.00  0.00    +0.000 Br
ATOM     33  C10 UNL     1      32.797  36.142  39.002  0.00  0.00    +0.000 A 
ATOM     34  C11 UNL     1      32.786  37.346  39.710  0.00  0.00    +0.000 A 
ATOM     35  H11 UNL     1      29.507  38.204  39.237  0.00  0.00    +0.000 HD
ATOM     36  H12 UNL     1      29.540  36.076  37.983  0.00  0.00    +0.000 HD
ATOM     37  H13 UNL     1      33.714  35.559  38.947  0.00  0.00    +0.000 HD
ATOM     38  H14 UNL     1      33.690  37.690  40.206  0.00  0.00    +0.000 HD
ENDBRANCH  25  28
ENDBRANCH  23  25
ENDBRANCH   1  23
TORSDOF 9
ENDMDL
