MODEL 1
REMARK VINA RESULT:    -6.969      0.000      0.000
REMARK INTER + INTRA:          -8.258
REMARK INTER:                  -7.988
REMARK INTRA:                  -0.270
REMARK UNBOUND:                -0.270
REMARK  Name = /home/ubuntu/ubp_medicine_study/real_molecular_docking/ligands_pdbqt/NOVEL_0048.pdb
REMARK  3 active torsions:
REMARK  status: ('A' for Active; 'I' for Inactive)
REMARK    1  A    between atoms: C1_1  and  C2_2
REMARK    2  A    between atoms: C2_2  and  C3_3
REMARK    3  A    between atoms: C8_11  and  C9_12
REMARK                            x       y       z     vdW  Elec       q    Type
REMARK                         _______ _______ _______ _____ _____    ______ ____
ROOT
ATOM      1  C2  UNL     1      35.100  30.547  27.771  0.00  0.00    +0.000 C 
ATOM      2  O1  UNL     1      35.592  31.667  27.006  0.00  0.00    +0.000 OA
ATOM      3  N2  UNL     1      35.464  32.801  27.839  0.00  0.00    +0.000 NA
ATOM      4  C8  UNL     1      34.946  32.361  28.936  0.00  0.00    +0.000 C 
ATOM      5  O2  UNL     1      34.628  31.056  29.014  0.00  0.00    +0.000 OA
ENDROOT
BRANCH   4   6
ATOM      6  C9  UNL     1      34.581  33.167  30.104  0.00  0.00    +0.000 A 
ATOM      7  C10 UNL     1      34.754  32.572  31.363  0.00  0.00    +0.000 A 
ATOM      8  C11 UNL     1      34.442  33.280  32.526  0.00  0.00    +0.000 A 
ATOM      9  C12 UNL     1      33.950  34.580  32.437  0.00  0.00    +0.000 A 
ATOM     10  C13 UNL     1      33.758  35.169  31.185  0.00  0.00    +0.000 A 
ATOM     11  C14 UNL     1      34.067  34.465  30.015  0.00  0.00    +0.000 A 
ATOM     12 CL1  UNL     1      33.720  35.248  28.513  0.00  0.00    +0.000 Cl
ATOM     13  H8  UNL     1      35.137  31.556  31.444  0.00  0.00    +0.000 HD
ATOM     14  H9  UNL     1      34.582  32.816  33.499  0.00  0.00    +0.000 HD
ATOM     15  H10 UNL     1      33.704  35.132  33.340  0.00  0.00    +0.000 HD
ATOM     16  H11 UNL     1      33.355  36.178  31.128  0.00  0.00    +0.000 HD
ENDBRANCH   4   6
BRANCH   1  17
ATOM     17  C3  UNL     1      33.951  29.860  27.031  0.00  0.00    +0.000 A 
ATOM     18  C4  UNL     1      32.765  29.558  27.706  0.00  0.00    +0.000 A 
ATOM     19  C5  UNL     1      31.739  28.905  27.027  0.00  0.00    +0.000 A 
ATOM     20  C6  UNL     1      31.916  28.557  25.695  0.00  0.00    +0.000 A 
ATOM     21  C7  UNL     1      33.119  28.878  25.093  0.00  0.00    +0.000 A 
ATOM     22  N1  UNL     1      34.132  29.512  25.725  0.00  0.00    +0.000 NA
ATOM     23  H4  UNL     1      32.636  29.829  28.749  0.00  0.00    +0.000 HD
ATOM     24  H5  UNL     1      30.809  28.668  27.537  0.00  0.00    +0.000 HD
ATOM     25  H6  UNL     1      31.138  28.048  25.139  0.00  0.00    +0.000 HD
ATOM     26  H7  UNL     1      33.310  28.625  24.054  0.00  0.00    +0.000 HD
ENDBRANCH   1  17
BRANCH   1  27
ATOM     27  C1  UNL     1      36.286  29.620  28.040  0.00  0.00    +0.000 C 
ATOM     28  H1  UNL     1      35.952  28.579  28.110  0.00  0.00    +0.000 HD
ATOM     29  H2  UNL     1      36.778  29.866  28.986  0.00  0.00    +0.000 HD
ATOM     30  H3  UNL     1      37.024  29.664  27.232  0.00  0.00    +0.000 HD
ENDBRANCH   1  27
TORSDOF 3
ENDMDL
