MODEL 1
REMARK VINA RESULT:    -4.339      0.000      0.000
REMARK INTER + INTRA:         -10.083
REMARK INTER:                  -7.003
REMARK INTRA:                  -3.080
REMARK UNBOUND:                -3.080
REMARK  Name = /home/ubuntu/ubp_medicine_study/real_molecular_docking/ligands_pdbqt/NOVEL_0089.pdb
REMARK  12 active torsions:
REMARK  status: ('A' for Active; 'I' for Inactive)
REMARK    1  A    between atoms: C1_1  and  C2_2
REMARK    2  A    between atoms: C2_2  and  C3_3
REMARK    3  A    between atoms: C3_3  and  N1_4
REMARK    4  A    between atoms: C3_3  and  C4_5
REMARK    5  A    between atoms: N2_7  and  C5_8
REMARK    6  A    between atoms: C10_15  and  C11_16
REMARK    7  A    between atoms: C11_16  and  C12_17
REMARK    8  A    between atoms: C12_17  and  N4_18
REMARK    9  A    between atoms: C15_21  and  C16_22
REMARK   10  A    between atoms: N5_24  and  C17_25
REMARK   11  A    between atoms: C17_25  and  C18_26
REMARK   12  A    between atoms: C17_25  and  C24_32
REMARK                            x       y       z     vdW  Elec       q    Type
REMARK                         _______ _______ _______ _____ _____    ______ ____
ROOT
ATOM      1  C5  UNL     1      41.930  34.341  50.119  0.00  0.00    +0.000 C 
ATOM      2  C6  UNL     1      40.947  34.265  48.923  0.00  0.00    +0.000 C 
ATOM      3  O2  UNL     1      41.323  34.435  47.758  0.00  0.00    +0.000 OA
ATOM      4  N3  UNL     1      39.625  34.042  49.229  0.00  0.00    +0.000 N 
ATOM      5  C7  UNL     1      39.129  33.566  50.510  0.00  0.00    +0.000 C 
ATOM      6  C8  UNL     1      39.097  34.696  51.537  0.00  0.00    +0.000 C 
ATOM      7  C9  UNL     1      40.484  34.986  52.124  0.00  0.00    +0.000 C 
ATOM      8  C10 UNL     1      41.578  35.455  51.141  0.00  0.00    +0.000 C 
ATOM      9  C13 UNL     1      37.753  32.981  50.180  0.00  0.00    +0.000 C 
ATOM     10  C14 UNL     1      37.299  33.748  48.948  0.00  0.00    +0.000 C 
ATOM     11  C15 UNL     1      38.599  34.037  48.192  0.00  0.00    +0.000 C 
ATOM     12  H10 UNL     1      41.935  33.366  50.618  0.00  0.00    +0.000 HD
ATOM     13  H11 UNL     1      39.772  32.756  50.873  0.00  0.00    +0.000 HD
ATOM     14  H12 UNL     1      38.444  34.408  52.370  0.00  0.00    +0.000 HD
ATOM     15  H13 UNL     1      38.668  35.606  51.101  0.00  0.00    +0.000 HD
ATOM     16  H14 UNL     1      40.377  35.715  52.933  0.00  0.00    +0.000 HD
ATOM     17  H15 UNL     1      40.840  34.074  52.623  0.00  0.00    +0.000 HD
ATOM     18  H16 UNL     1      42.476  35.599  51.761  0.00  0.00    +0.000 HD
ATOM     19  H23 UNL     1      37.039  33.044  51.006  0.00  0.00    +0.000 HD
ATOM     20  H24 UNL     1      37.863  31.922  49.917  0.00  0.00    +0.000 HD
ATOM     21  H25 UNL     1      36.801  34.675  49.258  0.00  0.00    +0.000 HD
ATOM     22  H26 UNL     1      36.586  33.179  48.343  0.00  0.00    +0.000 HD
ATOM     23  H27 UNL     1      38.842  33.241  47.479  0.00  0.00    +0.000 HD
ENDROOT
BRANCH   1  26
ATOM     24  C4  UNL     1      44.104  33.485  49.316  0.00  0.00    +0.000 C 
ATOM     25  O1  UNL     1      43.911  32.365  49.784  0.00  0.00    +0.000 OA
ATOM     26  N2  UNL     1      43.268  34.559  49.558  0.00  0.00    +0.000 N 
ATOM     27  H9  UNL     1      43.311  35.286  48.857  0.00  0.00    +0.000 HD
BRANCH  24  28
ATOM     28  C3  UNL     1      45.311  33.800  48.403  0.00  0.00    +0.000 C 
ATOM     29  H6  UNL     1      45.639  32.857  47.949  0.00  0.00    +0.000 HD
BRANCH  28  30
ATOM     30  C2  UNL     1      46.471  34.443  49.172  0.00  0.00    +0.000 C 
ATOM     31  H4  UNL     1      46.303  35.525  49.252  0.00  0.00    +0.000 HD
ATOM     32  H5  UNL     1      46.526  34.056  50.197  0.00  0.00    +0.000 HD
BRANCH  30  33
ATOM     33  C1  UNL     1      47.817  34.221  48.493  0.00  0.00    +0.000 C 
ATOM     34  H1  UNL     1      48.612  34.692  49.079  0.00  0.00    +0.000 HD
ATOM     35  H2  UNL     1      47.826  34.662  47.491  0.00  0.00    +0.000 HD
ATOM     36  H3  UNL     1      48.052  33.155  48.406  0.00  0.00    +0.000 HD
ENDBRANCH  30  33
ENDBRANCH  28  30
BRANCH  28  37
ATOM     37  N1  UNL     1      44.888  34.704  47.309  0.00  0.00    +0.000 NA
ATOM     38  H7  UNL     1      45.698  35.246  46.995  0.00  0.00    +0.000 HD
ATOM     39  H8  UNL     1      44.574  34.176  46.498  0.00  0.00    +0.000 HD
ENDBRANCH  28  37
ENDBRANCH  24  28
ENDBRANCH   1  26
BRANCH  11  40
ATOM     40  C16 UNL     1      38.435  35.387  47.466  0.00  0.00    +0.000 C 
ATOM     41  O3  UNL     1      38.787  35.580  46.305  0.00  0.00    +0.000 OA
ATOM     42  N5  UNL     1      37.940  36.384  48.280  0.00  0.00    +0.000 N 
ATOM     43  H28 UNL     1      37.761  36.197  49.255  0.00  0.00    +0.000 HD
BRANCH  42  44
ATOM     44  C17 UNL     1      37.897  37.775  47.858  0.00  0.00    +0.000 C 
ATOM     45  H29 UNL     1      38.614  37.912  47.037  0.00  0.00    +0.000 HD
BRANCH  44  46
ATOM     46  C18 UNL     1      38.344  38.625  49.045  0.00  0.00    +0.000 A 
ATOM     47  C19 UNL     1      37.896  38.358  50.353  0.00  0.00    +0.000 A 
ATOM     48  C20 UNL     1      38.334  39.132  51.428  0.00  0.00    +0.000 A 
ATOM     49  C21 UNL     1      39.229  40.178  51.215  0.00  0.00    +0.000 A 
ATOM     50  C22 UNL     1      39.690  40.450  49.927  0.00  0.00    +0.000 A 
ATOM     51  C23 UNL     1      39.253  39.678  48.849  0.00  0.00    +0.000 A 
ATOM     52  H30 UNL     1      37.192  37.547  50.538  0.00  0.00    +0.000 HD
ATOM     53  H31 UNL     1      37.977  38.918  52.433  0.00  0.00    +0.000 HD
ATOM     54  H32 UNL     1      39.574  40.779  52.053  0.00  0.00    +0.000 HD
ATOM     55  H33 UNL     1      40.394  41.262  49.760  0.00  0.00    +0.000 HD
ATOM     56  H34 UNL     1      39.633  39.896  47.853  0.00  0.00    +0.000 HD
ENDBRANCH  44  46
BRANCH  44  57
ATOM     57  C24 UNL     1      36.528  38.131  47.271  0.00  0.00    +0.000 A 
ATOM     58  C25 UNL     1      35.542  37.155  47.035  0.00  0.00    +0.000 A 
ATOM     59  C26 UNL     1      34.284  37.506  46.536  0.00  0.00    +0.000 A 
ATOM     60  C27 UNL     1      33.978  38.839  46.286  0.00  0.00    +0.000 A 
ATOM     61  C28 UNL     1      34.923  39.826  46.547  0.00  0.00    +0.000 A 
ATOM     62  C29 UNL     1      36.181  39.477  47.044  0.00  0.00    +0.000 A 
ATOM     63  H35 UNL     1      35.736  36.104  47.240  0.00  0.00    +0.000 HD
ATOM     64  H36 UNL     1      33.541  36.733  46.352  0.00  0.00    +0.000 HD
ATOM     65  H37 UNL     1      32.998  39.111  45.902  0.00  0.00    +0.000 HD
ATOM     66  H38 UNL     1      34.680  40.872  46.376  0.00  0.00    +0.000 HD
ATOM     67  H39 UNL     1      36.889  40.275  47.268  0.00  0.00    +0.000 HD
ENDBRANCH  44  57
ENDBRANCH  42  44
ENDBRANCH  11  40
BRANCH   8  68
ATOM     68  C11 UNL     1      41.307  36.818  50.458  0.00  0.00    +0.000 C 
ATOM     69  H17 UNL     1      41.281  36.659  49.373  0.00  0.00    +0.000 HD
ATOM     70  H18 UNL     1      40.319  37.199  50.728  0.00  0.00    +0.000 HD
BRANCH  68  71
ATOM     71  C12 UNL     1      42.354  37.908  50.711  0.00  0.00    +0.000 C 
ATOM     72  H19 UNL     1      42.373  38.134  51.783  0.00  0.00    +0.000 HD
ATOM     73  H20 UNL     1      42.079  38.830  50.188  0.00  0.00    +0.000 HD
BRANCH  71  74
ATOM     74  N4  UNL     1      43.697  37.499  50.314  0.00  0.00    +0.000 NA
ATOM     75  H21 UNL     1      43.815  36.504  50.513  0.00  0.00    +0.000 HD
ATOM     76  H22 UNL     1      44.380  37.983  50.895  0.00  0.00    +0.000 HD
ENDBRANCH  71  74
ENDBRANCH  68  71
ENDBRANCH   8  68
TORSDOF 12
ENDMDL
