MODEL 1
REMARK VINA RESULT:    -7.250      0.000      0.000
REMARK INTER + INTRA:         -14.168
REMARK INTER:                 -13.608
REMARK INTRA:                  -0.559
REMARK UNBOUND:                -0.559
REMARK  Name = /home/ubuntu/ubp_medicine_study/real_molecular_docking/ligands_pdbqt/NOVEL_0082.pdb
REMARK  17 active torsions:
REMARK  status: ('A' for Active; 'I' for Inactive)
REMARK    1  A    between atoms: C1_1  and  C2_2
REMARK    2  A    between atoms: C2_2  and  C3_3
REMARK    3  A    between atoms: C3_3  and  C4_4
REMARK    4  A    between atoms: C4_4  and  C5_5
REMARK    5  A    between atoms: C4_4  and  C6_6
REMARK    6  A    between atoms: C6_6  and  O1_7
REMARK    7  A    between atoms: C6_6  and  C16_18
REMARK    8  A    between atoms: O1_7  and  C7_8
REMARK    9  A    between atoms: C7_8  and  C8_10
REMARK   10  A    between atoms: C9_11  and  C10_12
REMARK   11  A    between atoms: C16_18  and  C17_19
REMARK   12  A    between atoms: C16_18  and  C18_20
REMARK   13  A    between atoms: C18_20  and  O3_21
REMARK   14  A    between atoms: C18_20  and  C19_22
REMARK   15  A    between atoms: C19_22  and  C20_23
REMARK   16  A    between atoms: C21_24  and  C22_25
REMARK   17  A    between atoms: C23_26  and  C24_27
REMARK                            x       y       z     vdW  Elec       q    Type
REMARK                         _______ _______ _______ _____ _____    ______ ____
ROOT
ATOM      1  C6  UNL     1      35.450  30.779  27.838  0.00  0.00    +0.000 C 
ATOM      2  H12 UNL     1      35.654  31.295  26.894  0.00  0.00    +0.000 HD
ENDROOT
BRANCH   1   3
ATOM      3  C4  UNL     1      36.798  30.264  28.442  0.00  0.00    +0.000 C 
ATOM      4  H8  UNL     1      36.561  29.435  29.123  0.00  0.00    +0.000 HD
BRANCH   3   5
ATOM      5  C5  UNL     1      37.529  31.298  29.314  0.00  0.00    +0.000 C 
ATOM      6  H9  UNL     1      38.610  31.116  29.317  0.00  0.00    +0.000 HD
ATOM      7  H10 UNL     1      37.376  32.310  28.924  0.00  0.00    +0.000 HD
ATOM      8  H11 UNL     1      37.179  31.278  30.351  0.00  0.00    +0.000 HD
ENDBRANCH   3   5
BRANCH   3   9
ATOM      9  C3  UNL     1      37.760  29.708  27.359  0.00  0.00    +0.000 C 
ATOM     10  H6  UNL     1      37.187  29.047  26.695  0.00  0.00    +0.000 HD
ATOM     11  H7  UNL     1      38.126  30.522  26.727  0.00  0.00    +0.000 HD
BRANCH   9  12
ATOM     12  C2  UNL     1      38.963  28.924  27.897  0.00  0.00    +0.000 C 
ATOM     13  H4  UNL     1      39.302  29.336  28.852  0.00  0.00    +0.000 HD
ATOM     14  H5  UNL     1      38.684  27.880  28.074  0.00  0.00    +0.000 HD
BRANCH  12  15
ATOM     15  C1  UNL     1      40.125  28.949  26.914  0.00  0.00    +0.000 C 
ATOM     16  H1  UNL     1      39.878  28.395  26.003  0.00  0.00    +0.000 HD
ATOM     17  H2  UNL     1      40.361  29.980  26.633  0.00  0.00    +0.000 HD
ATOM     18  H3  UNL     1      41.021  28.502  27.355  0.00  0.00    +0.000 HD
ENDBRANCH  12  15
ENDBRANCH   9  12
ENDBRANCH   3   9
ENDBRANCH   1   3
BRANCH   1  19
ATOM     19  C16 UNL     1      34.378  29.665  27.537  0.00  0.00    +0.000 C 
ATOM     20  H20 UNL     1      33.883  29.433  28.491  0.00  0.00    +0.000 HD
BRANCH  19  21
ATOM     21  C17 UNL     1      34.991  28.371  26.993  0.00  0.00    +0.000 C 
ATOM     22  H21 UNL     1      35.903  28.091  27.526  0.00  0.00    +0.000 HD
ATOM     23  H22 UNL     1      34.317  27.519  27.126  0.00  0.00    +0.000 HD
ATOM     24  H23 UNL     1      35.222  28.462  25.926  0.00  0.00    +0.000 HD
ENDBRANCH  19  21
BRANCH  19  25
ATOM     25  C18 UNL     1      33.277  30.214  26.567  0.00  0.00    +0.000 C 
ATOM     26  H24 UNL     1      33.360  31.307  26.523  0.00  0.00    +0.000 HD
BRANCH  25  27
ATOM     27  C19 UNL     1      33.335  29.634  25.137  0.00  0.00    +0.000 C 
ATOM     28  H26 UNL     1      34.353  29.280  24.927  0.00  0.00    +0.000 HD
ATOM     29  H27 UNL     1      33.086  30.394  24.389  0.00  0.00    +0.000 HD
BRANCH  27  30
ATOM     30  C20 UNL     1      32.344  28.513  24.937  0.00  0.00    +0.000 C 
ATOM     31  C21 UNL     1      32.353  27.684  23.882  0.00  0.00    +0.000 C 
ATOM     32  H28 UNL     1      31.568  28.420  25.693  0.00  0.00    +0.000 HD
ATOM     33  H29 UNL     1      33.138  27.762  23.131  0.00  0.00    +0.000 HD
BRANCH  31  34
ATOM     34  C22 UNL     1      31.404  26.614  23.690  0.00  0.00    +0.000 C 
ATOM     35  C23 UNL     1      31.408  25.657  22.748  0.00  0.00    +0.000 C 
ATOM     36  H30 UNL     1      30.608  26.591  24.434  0.00  0.00    +0.000 HD
ATOM     37  H31 UNL     1      30.605  24.928  22.750  0.00  0.00    +0.000 HD
BRANCH  35  38
ATOM     38  C24 UNL     1      32.453  25.450  21.716  0.00  0.00    +0.000 C 
ATOM     39  N1  UNL     1      32.106  25.937  20.494  0.00  0.00    +0.000 N 
ATOM     40  O4  UNL     1      33.523  24.890  21.898  0.00  0.00    +0.000 OA
ATOM     41  H32 UNL     1      31.264  26.461  20.313  0.00  0.00    +0.000 HD
ATOM     42  H33 UNL     1      32.789  25.843  19.752  0.00  0.00    +0.000 HD
ENDBRANCH  35  38
ENDBRANCH  31  34
ENDBRANCH  27  30
ENDBRANCH  25  27
BRANCH  25  43
ATOM     43  O3  UNL     1      31.985  29.905  27.107  0.00  0.00    +0.000 OA
ATOM     44  H25 UNL     1      31.932  30.322  27.984  0.00  0.00    +0.000 HD
ENDBRANCH  25  43
ENDBRANCH  19  25
ENDBRANCH   1  19
BRANCH   1  45
ATOM     45  O1  UNL     1      34.852  31.686  28.793  0.00  0.00    +0.000 OA
BRANCH  45  46
ATOM     46  C7  UNL     1      34.896  33.009  28.500  0.00  0.00    +0.000 C 
ATOM     47  O2  UNL     1      34.956  33.518  27.392  0.00  0.00    +0.000 OA
BRANCH  46  48
ATOM     48  C8  UNL     1      34.906  33.748  29.779  0.00  0.00    +0.000 C 
ATOM     49  C9  UNL     1      34.032  34.744  29.987  0.00  0.00    +0.000 C 
ATOM     50  H13 UNL     1      35.638  33.437  30.515  0.00  0.00    +0.000 HD
ATOM     51  H14 UNL     1      33.300  34.996  29.221  0.00  0.00    +0.000 HD
BRANCH  49  52
ATOM     52  C10 UNL     1      33.970  35.538  31.221  0.00  0.00    +0.000 A 
ATOM     53  C11 UNL     1      34.422  35.046  32.453  0.00  0.00    +0.000 A 
ATOM     54  C12 UNL     1      34.374  35.845  33.599  0.00  0.00    +0.000 A 
ATOM     55  C13 UNL     1      33.885  37.147  33.523  0.00  0.00    +0.000 A 
ATOM     56  C14 UNL     1      33.448  37.653  32.301  0.00  0.00    +0.000 A 
ATOM     57  C15 UNL     1      33.495  36.854  31.156  0.00  0.00    +0.000 A 
ATOM     58  H15 UNL     1      34.829  34.042  32.536  0.00  0.00    +0.000 HD
ATOM     59  H16 UNL     1      34.726  35.451  34.549  0.00  0.00    +0.000 HD
ATOM     60  H17 UNL     1      33.849  37.768  34.415  0.00  0.00    +0.000 HD
ATOM     61  H18 UNL     1      33.069  38.669  32.238  0.00  0.00    +0.000 HD
ATOM     62  H19 UNL     1      33.152  37.269  30.210  0.00  0.00    +0.000 HD
ENDBRANCH  49  52
ENDBRANCH  46  48
ENDBRANCH  45  46
ENDBRANCH   1  45
TORSDOF 17
ENDMDL
