MODEL 1
REMARK VINA RESULT:     0.000      0.000      0.000
REMARK INTER + INTRA:          -2.550
REMARK INTER:                   0.000
REMARK INTRA:                  -2.550
REMARK UNBOUND:                -2.550
REMARK  Name = /home/ubuntu/ubp_medicine_study/real_molecular_docking/ligands_pdbqt/NOVEL_0061.pdb
REMARK  14 active torsions:
REMARK  status: ('A' for Active; 'I' for Inactive)
REMARK    1  A    between atoms: C3_5  and  C4_6
REMARK    2  A    between atoms: C4_6  and  O2_7
REMARK    3  A    between atoms: C4_6  and  C5_8
REMARK    4  A    between atoms: C5_8  and  O3_9
REMARK    5  A    between atoms: C5_8  and  C6_10
REMARK    6  A    between atoms: C6_10  and  O4_11
REMARK    7  A    between atoms: C6_10  and  C7_12
REMARK    8  A    between atoms: C7_12  and  O5_13
REMARK    9  A    between atoms: C7_12  and  C8_14
REMARK   10  A    between atoms: C8_14  and  O6_15
REMARK   11  A    between atoms: N1_16  and  C9_17
REMARK   12  A    between atoms: C12_20  and  S2_21
REMARK   13  A    between atoms: S2_21  and  N2_24
REMARK   14  A    between atoms: N2_24  and  C13_25
REMARK                            x       y       z     vdW  Elec       q    Type
REMARK                         _______ _______ _______ _____ _____    ______ ____
ROOT
ATOM      1  O1  UNL     1      53.144  45.460  53.065  0.00  0.00    +0.000 OA
ATOM      2  C1  UNL     1      53.730  46.108  52.202  0.00  0.00    +0.000 C 
ATOM      3  C2  UNL     1      55.001  46.856  52.551  0.00  0.00    +0.000 C 
ATOM      4  S1  UNL     1      55.688  47.454  51.004  0.00  0.00    +0.000 S 
ATOM      5  C3  UNL     1      54.061  47.380  50.175  0.00  0.00    +0.000 C 
ATOM      6  N1  UNL     1      53.365  46.280  50.854  0.00  0.00    +0.000 N 
ATOM      7  H1  UNL     1      54.764  47.692  53.215  0.00  0.00    +0.000 HD
ATOM      8  H2  UNL     1      55.708  46.176  53.034  0.00  0.00    +0.000 HD
ATOM      9  H3  UNL     1      54.245  47.121  49.128  0.00  0.00    +0.000 HD
ENDROOT
BRANCH   6  10
ATOM     10  C9  UNL     1      52.359  45.498  50.187  0.00  0.00    +0.000 A 
ATOM     11  C10 UNL     1      50.993  45.621  50.505  0.00  0.00    +0.000 A 
ATOM     12  C11 UNL     1      50.006  44.877  49.844  0.00  0.00    +0.000 A 
ATOM     13  C12 UNL     1      50.373  43.983  48.843  0.00  0.00    +0.000 A 
ATOM     14  C18 UNL     1      51.708  43.857  48.479  0.00  0.00    +0.000 A 
ATOM     15  C19 UNL     1      52.685  44.609  49.147  0.00  0.00    +0.000 A 
ATOM     16  H15 UNL     1      50.642  46.289  51.287  0.00  0.00    +0.000 HD
ATOM     17  H16 UNL     1      48.963  45.000  50.130  0.00  0.00    +0.000 HD
ATOM     18  H22 UNL     1      52.009  43.189  47.676  0.00  0.00    +0.000 HD
ATOM     19  H23 UNL     1      53.706  44.480  48.799  0.00  0.00    +0.000 HD
BRANCH  13  20
ATOM     20  S2  UNL     1      49.133  43.052  47.974  0.00  0.00    +0.000 S 
ATOM     21  O7  UNL     1      49.805  42.180  47.032  0.00  0.00    +0.000 OA
ATOM     22  O8  UNL     1      48.230  42.508  48.968  0.00  0.00    +0.000 OA
BRANCH  20  23
ATOM     23  N2  UNL     1      48.270  44.228  47.132  0.00  0.00    +0.000 N 
ATOM     24  H17 UNL     1      48.364  45.136  47.583  0.00  0.00    +0.000 HD
BRANCH  23  25
ATOM     25  C13 UNL     1      48.548  44.340  45.757  0.00  0.00    +0.000 A 
ATOM     26  C14 UNL     1      47.808  43.700  44.780  0.00  0.00    +0.000 A 
ATOM     27  C15 UNL     1      48.200  43.863  43.457  0.00  0.00    +0.000 A 
ATOM     28  C16 UNL     1      49.302  44.659  43.169  0.00  0.00    +0.000 A 
ATOM     29  C17 UNL     1      49.969  45.267  44.224  0.00  0.00    +0.000 A 
ATOM     30  N3  UNL     1      49.612  45.127  45.520  0.00  0.00    +0.000 NA
ATOM     31  H18 UNL     1      46.947  43.088  45.036  0.00  0.00    +0.000 HD
ATOM     32  H19 UNL     1      47.650  43.377  42.657  0.00  0.00    +0.000 HD
ATOM     33  H20 UNL     1      49.636  44.807  42.146  0.00  0.00    +0.000 HD
ATOM     34  H21 UNL     1      50.835  45.904  44.047  0.00  0.00    +0.000 HD
ENDBRANCH  23  25
ENDBRANCH  20  23
ENDBRANCH  13  20
ENDBRANCH   6  10
BRANCH   5  35
ATOM     35  C4  UNL     1      53.314  48.744  50.308  0.00  0.00    +0.000 C 
ATOM     36  H4  UNL     1      54.026  49.519  50.623  0.00  0.00    +0.000 HD
BRANCH  35  37
ATOM     37  O2  UNL     1      52.341  48.702  51.368  0.00  0.00    +0.000 OA
ATOM     38  H5  UNL     1      52.858  48.489  52.171  0.00  0.00    +0.000 HD
ENDBRANCH  35  37
BRANCH  35  39
ATOM     39  C5  UNL     1      52.604  49.257  49.024  0.00  0.00    +0.000 C 
ATOM     40  H6  UNL     1      53.255  49.071  48.163  0.00  0.00    +0.000 HD
BRANCH  39  41
ATOM     41  O3  UNL     1      52.510  50.695  49.171  0.00  0.00    +0.000 OA
ATOM     42  H7  UNL     1      52.544  51.064  48.254  0.00  0.00    +0.000 HD
ENDBRANCH  39  41
BRANCH  39  43
ATOM     43  C6  UNL     1      51.191  48.674  48.759  0.00  0.00    +0.000 C 
ATOM     44  H8  UNL     1      51.022  47.757  49.327  0.00  0.00    +0.000 HD
BRANCH  43  45
ATOM     45  O4  UNL     1      50.205  49.615  49.204  0.00  0.00    +0.000 OA
ATOM     46  H9  UNL     1      50.538  49.960  50.057  0.00  0.00    +0.000 HD
ENDBRANCH  43  45
BRANCH  43  47
ATOM     47  C7  UNL     1      50.923  48.377  47.267  0.00  0.00    +0.000 C 
ATOM     48  H10 UNL     1      51.465  49.096  46.641  0.00  0.00    +0.000 HD
BRANCH  47  49
ATOM     49  C8  UNL     1      49.434  48.400  46.904  0.00  0.00    +0.000 C 
ATOM     50  H12 UNL     1      48.951  49.325  47.232  0.00  0.00    +0.000 HD
ATOM     51  H13 UNL     1      49.284  48.268  45.827  0.00  0.00    +0.000 HD
BRANCH  49  52
ATOM     52  O6  UNL     1      48.796  47.327  47.600  0.00  0.00    +0.000 OA
ATOM     53  H14 UNL     1      49.499  46.720  47.904  0.00  0.00    +0.000 HD
ENDBRANCH  49  52
ENDBRANCH  47  49
BRANCH  47  54
ATOM     54  O5  UNL     1      51.452  47.079  46.918  0.00  0.00    +0.000 OA
ATOM     55  H11 UNL     1      51.269  47.000  45.955  0.00  0.00    +0.000 HD
ENDBRANCH  47  54
ENDBRANCH  43  47
ENDBRANCH  39  43
ENDBRANCH  35  39
ENDBRANCH   5  35
TORSDOF 14
ENDMDL
