MODEL 1
REMARK VINA RESULT:     0.000      0.000      0.000
REMARK INTER + INTRA:          -0.332
REMARK INTER:                   0.000
REMARK INTRA:                  -0.332
REMARK UNBOUND:                -0.332
REMARK  Name = /home/ubuntu/ubp_medicine_study/real_molecular_docking/ligands_pdbqt/NOVEL_0043.pdb
REMARK  2 active torsions:
REMARK  status: ('A' for Active; 'I' for Inactive)
REMARK    1  A    between atoms: C5_6  and  N1_7
REMARK    2  A    between atoms: C7_10  and  C8_11
REMARK                            x       y       z     vdW  Elec       q    Type
REMARK                         _______ _______ _______ _____ _____    ______ ____
ROOT
ATOM      1  N1  UNL     1      45.281  41.168  46.899  0.00  0.00    +0.000 N 
ATOM      2  C6  UNL     1      46.581  40.878  46.657  0.00  0.00    +0.000 A 
ATOM      3  N2  UNL     1      46.924  39.735  46.101  0.00  0.00    +0.000 NA
ATOM      4  C7  UNL     1      48.296  39.655  45.905  0.00  0.00    +0.000 A 
ATOM      5  C13 UNL     1      48.988  40.789  46.279  0.00  0.00    +0.000 A 
ATOM      6  S1  UNL     1      47.903  41.962  46.891  0.00  0.00    +0.000 S 
ATOM      7  H4  UNL     1      44.633  40.482  46.526  0.00  0.00    +0.000 HD
ATOM      8  H9  UNL     1      50.043  41.006  46.217  0.00  0.00    +0.000 HD
ENDROOT
BRANCH   1  14
ATOM      9 CL1  UNL     1      44.106  42.267  51.826  0.00  0.00    +0.000 Cl
ATOM     10  C1  UNL     1      44.112  42.632  50.143  0.00  0.00    +0.000 A 
ATOM     11  C2  UNL     1      43.543  43.821  49.696  0.00  0.00    +0.000 A 
ATOM     12  C3  UNL     1      43.543  44.109  48.335  0.00  0.00    +0.000 A 
ATOM     13  C4  UNL     1      44.114  43.207  47.434  0.00  0.00    +0.000 A 
ATOM     14  C5  UNL     1      44.691  42.001  47.869  0.00  0.00    +0.000 A 
ATOM     15  C14 UNL     1      44.685  41.730  49.242  0.00  0.00    +0.000 A 
ATOM     16  H1  UNL     1      43.099  44.520  50.400  0.00  0.00    +0.000 HD
ATOM     17  H2  UNL     1      43.106  45.037  47.974  0.00  0.00    +0.000 HD
ATOM     18  H3  UNL     1      44.120  43.462  46.376  0.00  0.00    +0.000 HD
ATOM     19  H10 UNL     1      45.090  40.801  49.628  0.00  0.00    +0.000 HD
ENDBRANCH   1  14
BRANCH   4  20
ATOM     20  C8  UNL     1      48.900  38.457  45.325  0.00  0.00    +0.000 A 
ATOM     21  C9  UNL     1      48.082  37.379  44.977  0.00  0.00    +0.000 A 
ATOM     22  C10 UNL     1      48.663  36.247  44.428  0.00  0.00    +0.000 A 
ATOM     23  N3  UNL     1      49.988  36.117  44.210  0.00  0.00    +0.000 NA
ATOM     24  C11 UNL     1      50.763  37.163  44.558  0.00  0.00    +0.000 A 
ATOM     25  C12 UNL     1      50.276  38.338  45.112  0.00  0.00    +0.000 A 
ATOM     26  H5  UNL     1      47.008  37.414  45.126  0.00  0.00    +0.000 HD
ATOM     27  H6  UNL     1      48.058  35.391  44.144  0.00  0.00    +0.000 HD
ATOM     28  H7  UNL     1      51.826  37.029  44.377  0.00  0.00    +0.000 HD
ATOM     29  H8  UNL     1      50.977  39.123  45.372  0.00  0.00    +0.000 HD
ENDBRANCH   4  20
TORSDOF 2
ENDMDL
