MODEL 1
REMARK VINA RESULT:    -5.118      0.000      0.000
REMARK INTER + INTRA:          -8.368
REMARK INTER:                  -8.110
REMARK INTRA:                  -0.259
REMARK UNBOUND:                -0.259
REMARK  Name = /home/ubuntu/ubp_medicine_study/real_molecular_docking/ligands_pdbqt/NOVEL_0028.pdb
REMARK  12 active torsions:
REMARK  status: ('A' for Active; 'I' for Inactive)
REMARK    1  A    between atoms: C1_1  and  C2_2
REMARK    2  A    between atoms: C2_2  and  C3_3
REMARK    3  A    between atoms: C3_3  and  C4_4
REMARK    4  A    between atoms: C4_4  and  C5_5
REMARK    5  A    between atoms: C5_5  and  C6_6
REMARK    6  A    between atoms: C6_6  and  C7_7
REMARK    7  A    between atoms: C6_6  and  N1_9
REMARK    8  A    between atoms: C8_10  and  O3_12
REMARK    9  A    between atoms: O3_12  and  C9_13
REMARK   10  A    between atoms: C9_13  and  C10_14
REMARK   11  A    between atoms: C9_13  and  C11_15
REMARK   12  A    between atoms: C9_13  and  C12_16
REMARK                            x       y       z     vdW  Elec       q    Type
REMARK                         _______ _______ _______ _____ _____    ______ ____
ROOT
ATOM      1  C6  UNL     1      31.171  28.764  22.677  0.00  0.00    +0.000 C 
ATOM      2  H12 UNL     1      32.036  28.563  22.038  0.00  0.00    +0.000 HD
ENDROOT
BRANCH   1   3
ATOM      3  N1  UNL     1      31.646  29.264  23.958  0.00  0.00    +0.000 N 
ATOM      4  C8  UNL     1      32.967  29.209  24.286  0.00  0.00    +0.000 C 
ATOM      5  O2  UNL     1      33.805  28.557  23.686  0.00  0.00    +0.000 OA
ATOM      6  H14 UNL     1      31.169  30.061  24.363  0.00  0.00    +0.000 HD
BRANCH   4   7
ATOM      7  O3  UNL     1      33.182  30.006  25.356  0.00  0.00    +0.000 OA
BRANCH   7   8
ATOM      8  C9  UNL     1      33.279  29.446  26.691  0.00  0.00    +0.000 C 
BRANCH   8   9
ATOM      9  C10 UNL     1      34.035  30.506  27.506  0.00  0.00    +0.000 C 
ATOM     10  H15 UNL     1      33.780  31.517  27.162  0.00  0.00    +0.000 HD
ATOM     11  H16 UNL     1      33.752  30.460  28.563  0.00  0.00    +0.000 HD
ATOM     12  H17 UNL     1      35.120  30.380  27.432  0.00  0.00    +0.000 HD
ENDBRANCH   8   9
BRANCH   8  13
ATOM     13  C11 UNL     1      34.099  28.151  26.693  0.00  0.00    +0.000 C 
ATOM     14  H18 UNL     1      34.087  27.684  27.684  0.00  0.00    +0.000 HD
ATOM     15  H19 UNL     1      33.708  27.431  25.965  0.00  0.00    +0.000 HD
ATOM     16  H20 UNL     1      35.149  28.330  26.443  0.00  0.00    +0.000 HD
ENDBRANCH   8  13
BRANCH   8  17
ATOM     17  C12 UNL     1      31.893  29.246  27.314  0.00  0.00    +0.000 C 
ATOM     18  H21 UNL     1      31.121  29.737  26.710  0.00  0.00    +0.000 HD
ATOM     19  H22 UNL     1      31.850  29.651  28.331  0.00  0.00    +0.000 HD
ATOM     20  H23 UNL     1      31.619  28.189  27.371  0.00  0.00    +0.000 HD
ENDBRANCH   8  17
ENDBRANCH   7   8
ENDBRANCH   4   7
ENDBRANCH   1   3
BRANCH   1  21
ATOM     21  C5  UNL     1      30.317  27.510  22.876  0.00  0.00    +0.000 C 
ATOM     22  H10 UNL     1      29.741  27.605  23.805  0.00  0.00    +0.000 HD
ATOM     23  H11 UNL     1      29.569  27.446  22.073  0.00  0.00    +0.000 HD
BRANCH  21  24
ATOM     24  C4  UNL     1      31.097  26.191  22.897  0.00  0.00    +0.000 C 
ATOM     25  H8  UNL     1      30.396  25.357  23.020  0.00  0.00    +0.000 HD
ATOM     26  H9  UNL     1      31.733  26.184  23.792  0.00  0.00    +0.000 HD
BRANCH  24  27
ATOM     27  C3  UNL     1      31.973  25.910  21.672  0.00  0.00    +0.000 C 
ATOM     28  H6  UNL     1      32.035  26.804  21.041  0.00  0.00    +0.000 HD
ATOM     29  H7  UNL     1      31.472  25.144  21.066  0.00  0.00    +0.000 HD
BRANCH  27  30
ATOM     30  C2  UNL     1      33.378  25.424  22.025  0.00  0.00    +0.000 C 
ATOM     31  H4  UNL     1      33.773  26.005  22.866  0.00  0.00    +0.000 HD
ATOM     32  H5  UNL     1      34.057  25.572  21.178  0.00  0.00    +0.000 HD
BRANCH  30  33
ATOM     33  C1  UNL     1      33.379  23.949  22.395  0.00  0.00    +0.000 C 
ATOM     34  H1  UNL     1      33.654  23.822  23.446  0.00  0.00    +0.000 HD
ATOM     35  H2  UNL     1      32.389  23.507  22.248  0.00  0.00    +0.000 HD
ATOM     36  H3  UNL     1      34.099  23.393  21.785  0.00  0.00    +0.000 HD
ENDBRANCH  30  33
ENDBRANCH  27  30
ENDBRANCH  24  27
ENDBRANCH  21  24
ENDBRANCH   1  21
BRANCH   1  37
ATOM     37  C7  UNL     1      30.351  29.873  22.026  0.00  0.00    +0.000 C 
ATOM     38  O1  UNL     1      29.359  29.677  21.326  0.00  0.00    +0.000 OA
ATOM     39  H13 UNL     1      30.742  30.894  22.175  0.00  0.00    +0.000 HD
ENDBRANCH   1  37
TORSDOF 12
ENDMDL
