MODEL 1
REMARK VINA RESULT:    -4.383      0.000      0.000
REMARK INTER + INTRA:         -10.203
REMARK INTER:                  -7.073
REMARK INTRA:                  -3.130
REMARK UNBOUND:                -3.130
REMARK  Name = /home/ubuntu/ubp_medicine_study/real_molecular_docking/ligands_pdbqt/NOVEL_0032.pdb
REMARK  12 active torsions:
REMARK  status: ('A' for Active; 'I' for Inactive)
REMARK    1  A    between atoms: C1_1  and  C2_2
REMARK    2  A    between atoms: C2_2  and  C3_3
REMARK    3  A    between atoms: C3_3  and  N1_4
REMARK    4  A    between atoms: C3_3  and  C4_5
REMARK    5  A    between atoms: N2_7  and  C5_8
REMARK    6  A    between atoms: C10_15  and  C11_16
REMARK    7  A    between atoms: C11_16  and  C12_17
REMARK    8  A    between atoms: C12_17  and  N4_18
REMARK    9  A    between atoms: C15_21  and  C16_22
REMARK   10  A    between atoms: N5_24  and  C17_25
REMARK   11  A    between atoms: C17_25  and  C18_26
REMARK   12  A    between atoms: C17_25  and  C24_32
REMARK                            x       y       z     vdW  Elec       q    Type
REMARK                         _______ _______ _______ _____ _____    ______ ____
ROOT
ATOM      1  C5  UNL     1      41.735  34.133  50.202  0.00  0.00    +0.000 C 
ATOM      2  C6  UNL     1      40.838  34.101  48.938  0.00  0.00    +0.000 C 
ATOM      3  O2  UNL     1      41.294  34.316  47.810  0.00  0.00    +0.000 OA
ATOM      4  N3  UNL     1      39.499  33.864  49.142  0.00  0.00    +0.000 N 
ATOM      5  C7  UNL     1      38.917  33.337  50.366  0.00  0.00    +0.000 C 
ATOM      6  C8  UNL     1      38.809  34.428  51.431  0.00  0.00    +0.000 C 
ATOM      7  C9  UNL     1      40.149  34.697  52.125  0.00  0.00    +0.000 C 
ATOM      8  C10 UNL     1      41.307  35.206  51.239  0.00  0.00    +0.000 C 
ATOM      9  C13 UNL     1      37.571  32.763  49.919  0.00  0.00    +0.000 C 
ATOM     10  C14 UNL     1      37.200  33.576  48.689  0.00  0.00    +0.000 C 
ATOM     11  C15 UNL     1      38.548  33.897  48.037  0.00  0.00    +0.000 C 
ATOM     12  H10 UNL     1      41.710  33.139  50.663  0.00  0.00    +0.000 HD
ATOM     13  H11 UNL     1      39.538  32.515  50.743  0.00  0.00    +0.000 HD
ATOM     14  H12 UNL     1      38.100  34.106  52.205  0.00  0.00    +0.000 HD
ATOM     15  H13 UNL     1      38.407  35.352  51.002  0.00  0.00    +0.000 HD
ATOM     16  H14 UNL     1      39.983  35.395  52.952  0.00  0.00    +0.000 HD
ATOM     17  H15 UNL     1      40.475  33.768  52.612  0.00  0.00    +0.000 HD
ATOM     18  H16 UNL     1      42.160  35.328  51.925  0.00  0.00    +0.000 HD
ATOM     19  H23 UNL     1      36.800  32.793  50.695  0.00  0.00    +0.000 HD
ATOM     20  H24 UNL     1      37.703  31.715  49.624  0.00  0.00    +0.000 HD
ATOM     21  H25 UNL     1      36.677  34.489  48.998  0.00  0.00    +0.000 HD
ATOM     22  H26 UNL     1      36.534  33.029  48.014  0.00  0.00    +0.000 HD
ATOM     23  H27 UNL     1      38.845  33.129  47.313  0.00  0.00    +0.000 HD
ENDROOT
BRANCH   1  26
ATOM     24  C4  UNL     1      43.947  33.311  49.470  0.00  0.00    +0.000 C 
ATOM     25  O1  UNL     1      43.714  32.161  49.835  0.00  0.00    +0.000 OA
ATOM     26  N2  UNL     1      43.109  34.375  49.745  0.00  0.00    +0.000 N 
ATOM     27  H9  UNL     1      43.203  35.155  49.109  0.00  0.00    +0.000 HD
BRANCH  24  28
ATOM     28  C3  UNL     1      45.213  33.680  48.663  0.00  0.00    +0.000 C 
ATOM     29  H6  UNL     1      45.747  32.749  48.439  0.00  0.00    +0.000 HD
BRANCH  28  30
ATOM     30  C2  UNL     1      46.131  34.641  49.426  0.00  0.00    +0.000 C 
ATOM     31  H4  UNL     1      45.792  35.674  49.270  0.00  0.00    +0.000 HD
ATOM     32  H5  UNL     1      46.087  34.454  50.506  0.00  0.00    +0.000 HD
BRANCH  30  33
ATOM     33  C1  UNL     1      47.583  34.545  48.974  0.00  0.00    +0.000 C 
ATOM     34  H1  UNL     1      47.717  35.085  48.032  0.00  0.00    +0.000 HD
ATOM     35  H2  UNL     1      47.873  33.502  48.813  0.00  0.00    +0.000 HD
ATOM     36  H3  UNL     1      48.264  34.985  49.710  0.00  0.00    +0.000 HD
ENDBRANCH  30  33
ENDBRANCH  28  30
BRANCH  28  37
ATOM     37  N1  UNL     1      44.821  34.296  47.374  0.00  0.00    +0.000 NA
ATOM     38  H7  UNL     1      43.816  34.160  47.234  0.00  0.00    +0.000 HD
ATOM     39  H8  UNL     1      44.968  35.303  47.389  0.00  0.00    +0.000 HD
ENDBRANCH  28  37
ENDBRANCH  24  28
ENDBRANCH   1  26
BRANCH  11  40
ATOM     40  C16 UNL     1      38.430  35.273  47.353  0.00  0.00    +0.000 C 
ATOM     41  O3  UNL     1      38.868  35.513  46.231  0.00  0.00    +0.000 OA
ATOM     42  N5  UNL     1      37.864  36.234  48.164  0.00  0.00    +0.000 N 
ATOM     43  H28 UNL     1      37.612  36.009  49.115  0.00  0.00    +0.000 HD
BRANCH  42  44
ATOM     44  C17 UNL     1      37.841  37.641  47.795  0.00  0.00    +0.000 C 
ATOM     45  H29 UNL     1      38.567  37.799  46.986  0.00  0.00    +0.000 HD
BRANCH  44  46
ATOM     46  C18 UNL     1      38.289  38.440  49.017  0.00  0.00    +0.000 A 
ATOM     47  C19 UNL     1      39.221  39.489  48.909  0.00  0.00    +0.000 A 
ATOM     48  C20 UNL     1      39.601  40.222  50.035  0.00  0.00    +0.000 A 
ATOM     49  C21 UNL     1      39.052  39.923  51.280  0.00  0.00    +0.000 A 
ATOM     50  C22 UNL     1      38.120  38.892  51.402  0.00  0.00    +0.000 A 
ATOM     51  C23 UNL     1      37.738  38.157  50.278  0.00  0.00    +0.000 A 
ATOM     52  H30 UNL     1      39.665  39.734  47.945  0.00  0.00    +0.000 HD
ATOM     53  H31 UNL     1      40.326  41.029  49.939  0.00  0.00    +0.000 HD
ATOM     54  H32 UNL     1      39.344  40.496  52.156  0.00  0.00    +0.000 HD
ATOM     55  H33 UNL     1      37.685  38.662  52.371  0.00  0.00    +0.000 HD
ATOM     56  H34 UNL     1      37.001  37.365  50.389  0.00  0.00    +0.000 HD
ENDBRANCH  44  46
BRANCH  44  57
ATOM     57  C24 UNL     1      36.482  38.035  47.210  0.00  0.00    +0.000 A 
ATOM     58  C25 UNL     1      35.523  37.074  46.841  0.00  0.00    +0.000 A 
ATOM     59  C26 UNL     1      34.272  37.456  46.347  0.00  0.00    +0.000 A 
ATOM     60  C27 UNL     1      33.946  38.804  46.235  0.00  0.00    +0.000 A 
ATOM     61  C28 UNL     1      34.864  39.772  46.629  0.00  0.00    +0.000 A 
ATOM     62  C29 UNL     1      36.115  39.392  47.121  0.00  0.00    +0.000 A 
ATOM     63  H35 UNL     1      35.732  36.011  46.937  0.00  0.00    +0.000 HD
ATOM     64  H36 UNL     1      33.550  36.696  46.058  0.00  0.00    +0.000 HD
ATOM     65  H37 UNL     1      32.971  39.099  45.854  0.00  0.00    +0.000 HD
ATOM     66  H38 UNL     1      34.605  40.827  46.565  0.00  0.00    +0.000 HD
ATOM     67  H39 UNL     1      36.800  40.173  47.451  0.00  0.00    +0.000 HD
ENDBRANCH  44  57
ENDBRANCH  42  44
ENDBRANCH  11  40
BRANCH   8  68
ATOM     68  C11 UNL     1      41.079  36.594  50.591  0.00  0.00    +0.000 C 
ATOM     69  H17 UNL     1      41.093  36.470  49.501  0.00  0.00    +0.000 HD
ATOM     70  H18 UNL     1      40.085  36.978  50.835  0.00  0.00    +0.000 HD
BRANCH  68  71
ATOM     71  C12 UNL     1      42.126  37.662  50.920  0.00  0.00    +0.000 C 
ATOM     72  H19 UNL     1      42.261  37.698  52.008  0.00  0.00    +0.000 HD
ATOM     73  H20 UNL     1      41.778  38.650  50.602  0.00  0.00    +0.000 HD
BRANCH  71  74
ATOM     74  N4  UNL     1      43.425  37.380  50.316  0.00  0.00    +0.000 NA
ATOM     75  H21 UNL     1      43.885  38.263  50.089  0.00  0.00    +0.000 HD
ATOM     76  H22 UNL     1      43.284  36.901  49.428  0.00  0.00    +0.000 HD
ENDBRANCH  71  74
ENDBRANCH  68  71
ENDBRANCH   8  68
TORSDOF 12
ENDMDL
