MODEL 1
REMARK VINA RESULT:     0.000      0.000      0.000
REMARK INTER + INTRA:          -3.689
REMARK INTER:                   0.000
REMARK INTRA:                  -3.689
REMARK UNBOUND:                -3.689
REMARK  Name = /home/ubuntu/ubp_medicine_study/real_molecular_docking/ligands_pdbqt/NOVEL_0059.pdb
REMARK  15 active torsions:
REMARK  status: ('A' for Active; 'I' for Inactive)
REMARK    1  A    between atoms: N4_10  and  C6_11
REMARK    2  A    between atoms: C6_11  and  C7_12
REMARK    3  A    between atoms: C6_11  and  C10_20
REMARK    4  A    between atoms: C7_12  and  O2_13
REMARK    5  A    between atoms: O2_13  and  C8_14
REMARK    6  A    between atoms: C8_14  and  C9_15
REMARK    7  A    between atoms: C9_15  and  P1_16
REMARK    8  A    between atoms: P1_16  and  O4_18
REMARK    9  A    between atoms: P1_16  and  O5_19
REMARK   10  A    between atoms: C10_20  and  O6_21
REMARK   11  A    between atoms: O6_21  and  C11_22
REMARK   12  A    between atoms: C11_22  and  C12_23
REMARK   13  A    between atoms: C12_23  and  P2_24
REMARK   14  A    between atoms: P2_24  and  O8_26
REMARK   15  A    between atoms: P2_24  and  O9_27
REMARK                            x       y       z     vdW  Elec       q    Type
REMARK                         _______ _______ _______ _____ _____    ______ ____
ROOT
ATOM      1  C6  UNL     1      45.034  48.161  48.736  0.00  0.00    +0.000 C 
ATOM      2  H4  UNL     1      44.093  48.709  48.872  0.00  0.00    +0.000 HD
ENDROOT
BRANCH   1  12
ATOM      3  O1  UNL     1      42.777  44.043  45.033  0.00  0.00    +0.000 OA
ATOM      4  C1  UNL     1      42.716  45.032  45.755  0.00  0.00    +0.000 A 
ATOM      5  N1  UNL     1      41.533  45.734  45.940  0.00  0.00    +0.000 N 
ATOM      6  C2  UNL     1      41.424  46.856  46.741  0.00  0.00    +0.000 A 
ATOM      7  N2  UNL     1      42.395  47.395  47.417  0.00  0.00    +0.000 NA
ATOM      8  C3  UNL     1      43.565  46.732  47.262  0.00  0.00    +0.000 A 
ATOM      9  C4  UNL     1      43.818  45.611  46.499  0.00  0.00    +0.000 A 
ATOM     10  N3  UNL     1      45.132  45.231  46.585  0.00  0.00    +0.000 NA
ATOM     11  C5  UNL     1      45.676  46.112  47.399  0.00  0.00    +0.000 A 
ATOM     12  N4  UNL     1      44.765  47.043  47.838  0.00  0.00    +0.000 N 
ATOM     13  H1  UNL     1      40.733  45.373  45.443  0.00  0.00    +0.000 HD
ATOM     14  H2  UNL     1      40.408  47.281  46.764  0.00  0.00    +0.000 HD
ATOM     15  H3  UNL     1      46.716  46.121  47.699  0.00  0.00    +0.000 HD
ENDBRANCH   1  12
BRANCH   1  16
ATOM     16  C7  UNL     1      45.476  47.655  50.120  0.00  0.00    +0.000 C 
ATOM     17  H5  UNL     1      45.949  48.462  50.691  0.00  0.00    +0.000 HD
ATOM     18  H6  UNL     1      46.208  46.845  50.005  0.00  0.00    +0.000 HD
BRANCH  16  19
ATOM     19  O2  UNL     1      44.362  47.144  50.852  0.00  0.00    +0.000 OA
BRANCH  19  20
ATOM     20  C8  UNL     1      43.972  48.012  51.915  0.00  0.00    +0.000 C 
ATOM     21  H7  UNL     1      43.935  49.046  51.555  0.00  0.00    +0.000 HD
ATOM     22  H8  UNL     1      44.703  47.952  52.730  0.00  0.00    +0.000 HD
BRANCH  20  23
ATOM     23  C9  UNL     1      42.605  47.578  52.403  0.00  0.00    +0.000 C 
ATOM     24  H9  UNL     1      42.676  46.589  52.869  0.00  0.00    +0.000 HD
ATOM     25  H10 UNL     1      42.273  48.258  53.196  0.00  0.00    +0.000 HD
BRANCH  23  26
ATOM     26  P1  UNL     1      41.407  47.556  51.098  0.00  0.00    +0.000 P 
ATOM     27  O3  UNL     1      39.978  47.685  51.499  0.00  0.00    +0.000 OA
BRANCH  26  28
ATOM     28  O4  UNL     1      41.735  46.246  50.237  0.00  0.00    +0.000 OA
ATOM     29  H11 UNL     1      42.455  45.684  50.580  0.00  0.00    +0.000 HD
ENDBRANCH  26  28
BRANCH  26  30
ATOM     30  O5  UNL     1      41.875  48.690  50.071  0.00  0.00    +0.000 OA
ATOM     31  H12 UNL     1      42.793  48.968  50.259  0.00  0.00    +0.000 HD
ENDBRANCH  26  30
ENDBRANCH  23  26
ENDBRANCH  20  23
ENDBRANCH  19  20
ENDBRANCH  16  19
ENDBRANCH   1  16
BRANCH   1  32
ATOM     32  C10 UNL     1      46.044  49.127  48.091  0.00  0.00    +0.000 C 
ATOM     33  H13 UNL     1      46.894  48.557  47.697  0.00  0.00    +0.000 HD
ATOM     34  H14 UNL     1      46.428  49.830  48.839  0.00  0.00    +0.000 HD
BRANCH  32  35
ATOM     35  O6  UNL     1      45.443  49.863  47.026  0.00  0.00    +0.000 OA
BRANCH  35  36
ATOM     36  C11 UNL     1      45.341  51.263  47.290  0.00  0.00    +0.000 C 
ATOM     37  H15 UNL     1      45.025  51.366  48.333  0.00  0.00    +0.000 HD
ATOM     38  H16 UNL     1      46.321  51.748  47.207  0.00  0.00    +0.000 HD
BRANCH  36  39
ATOM     39  C12 UNL     1      44.310  51.916  46.388  0.00  0.00    +0.000 C 
ATOM     40  H17 UNL     1      44.736  52.038  45.385  0.00  0.00    +0.000 HD
ATOM     41  H18 UNL     1      44.091  52.930  46.740  0.00  0.00    +0.000 HD
BRANCH  39  42
ATOM     42  P2  UNL     1      42.794  51.012  46.280  0.00  0.00    +0.000 P 
ATOM     43  O7  UNL     1      41.583  51.728  45.785  0.00  0.00    +0.000 OA
BRANCH  42  44
ATOM     44  O8  UNL     1      42.549  50.376  47.730  0.00  0.00    +0.000 OA
ATOM     45  H19 UNL     1      41.616  50.141  47.887  0.00  0.00    +0.000 HD
ENDBRANCH  42  44
BRANCH  42  46
ATOM     46  O9  UNL     1      43.099  49.697  45.419  0.00  0.00    +0.000 OA
ATOM     47  H20 UNL     1      43.670  49.060  45.889  0.00  0.00    +0.000 HD
ENDBRANCH  42  46
ENDBRANCH  39  42
ENDBRANCH  36  39
ENDBRANCH  35  36
ENDBRANCH  32  35
ENDBRANCH   1  32
TORSDOF 15
ENDMDL
