MODEL 1
REMARK VINA RESULT:    -7.158      0.000      0.000
REMARK INTER + INTRA:         -14.180
REMARK INTER:                 -13.436
REMARK INTRA:                  -0.745
REMARK UNBOUND:                -0.745
REMARK  Name = /home/ubuntu/ubp_medicine_study/real_molecular_docking/ligands_pdbqt/NOVEL_0010.pdb
REMARK  17 active torsions:
REMARK  status: ('A' for Active; 'I' for Inactive)
REMARK    1  A    between atoms: C1_1  and  C2_2
REMARK    2  A    between atoms: C2_2  and  C3_3
REMARK    3  A    between atoms: C3_3  and  C4_4
REMARK    4  A    between atoms: C4_4  and  C5_5
REMARK    5  A    between atoms: C4_4  and  C6_6
REMARK    6  A    between atoms: C6_6  and  O1_7
REMARK    7  A    between atoms: C6_6  and  C16_18
REMARK    8  A    between atoms: O1_7  and  C7_8
REMARK    9  A    between atoms: C7_8  and  C8_10
REMARK   10  A    between atoms: C9_11  and  C10_12
REMARK   11  A    between atoms: C16_18  and  C17_19
REMARK   12  A    between atoms: C16_18  and  C18_20
REMARK   13  A    between atoms: C18_20  and  O3_21
REMARK   14  A    between atoms: C18_20  and  C19_22
REMARK   15  A    between atoms: C19_22  and  C20_23
REMARK   16  A    between atoms: C21_24  and  C22_25
REMARK   17  A    between atoms: C23_26  and  C24_27
REMARK                            x       y       z     vdW  Elec       q    Type
REMARK                         _______ _______ _______ _____ _____    ______ ____
ROOT
ATOM      1  C6  UNL     1      35.449  30.738  27.810  0.00  0.00    +0.000 C 
ATOM      2  H12 UNL     1      35.637  31.275  26.874  0.00  0.00    +0.000 HD
ENDROOT
BRANCH   1   3
ATOM      3  C4  UNL     1      36.803  30.182  28.363  0.00  0.00    +0.000 C 
ATOM      4  H8  UNL     1      36.572  29.311  28.990  0.00  0.00    +0.000 HD
BRANCH   3   5
ATOM      5  C5  UNL     1      37.546  31.156  29.294  0.00  0.00    +0.000 C 
ATOM      6  H9  UNL     1      37.894  32.038  28.744  0.00  0.00    +0.000 HD
ATOM      7  H10 UNL     1      36.881  31.515  30.087  0.00  0.00    +0.000 HD
ATOM      8  H11 UNL     1      38.414  30.687  29.766  0.00  0.00    +0.000 HD
ENDBRANCH   3   5
BRANCH   3   9
ATOM      9  C3  UNL     1      37.752  29.699  27.235  0.00  0.00    +0.000 C 
ATOM     10  H6  UNL     1      37.250  28.892  26.685  0.00  0.00    +0.000 HD
ATOM     11  H7  UNL     1      37.911  30.501  26.507  0.00  0.00    +0.000 HD
BRANCH   9  12
ATOM     12  C2  UNL     1      39.117  29.185  27.707  0.00  0.00    +0.000 C 
ATOM     13  H4  UNL     1      39.816  29.108  26.869  0.00  0.00    +0.000 HD
ATOM     14  H5  UNL     1      39.553  29.882  28.431  0.00  0.00    +0.000 HD
BRANCH  12  15
ATOM     15  C1  UNL     1      38.997  27.820  28.370  0.00  0.00    +0.000 C 
ATOM     16  H1  UNL     1      38.840  27.922  29.448  0.00  0.00    +0.000 HD
ATOM     17  H2  UNL     1      38.148  27.270  27.952  0.00  0.00    +0.000 HD
ATOM     18  H3  UNL     1      39.901  27.225  28.209  0.00  0.00    +0.000 HD
ENDBRANCH  12  15
ENDBRANCH   9  12
ENDBRANCH   3   9
ENDBRANCH   1   3
BRANCH   1  19
ATOM     19  C16 UNL     1      34.348  29.653  27.510  0.00  0.00    +0.000 C 
ATOM     20  H20 UNL     1      33.842  29.441  28.463  0.00  0.00    +0.000 HD
BRANCH  19  21
ATOM     21  C17 UNL     1      34.929  28.338  26.977  0.00  0.00    +0.000 C 
ATOM     22  H21 UNL     1      34.455  27.465  27.432  0.00  0.00    +0.000 HD
ATOM     23  H22 UNL     1      34.749  28.226  25.904  0.00  0.00    +0.000 HD
ATOM     24  H23 UNL     1      36.008  28.284  27.152  0.00  0.00    +0.000 HD
ENDBRANCH  19  21
BRANCH  19  25
ATOM     25  C18 UNL     1      33.269  30.226  26.530  0.00  0.00    +0.000 C 
ATOM     26  H24 UNL     1      33.370  31.318  26.494  0.00  0.00    +0.000 HD
BRANCH  25  27
ATOM     27  C19 UNL     1      33.333  29.653  25.097  0.00  0.00    +0.000 C 
ATOM     28  H26 UNL     1      34.347  29.280  24.899  0.00  0.00    +0.000 HD
ATOM     29  H27 UNL     1      33.112  30.424  24.352  0.00  0.00    +0.000 HD
BRANCH  27  30
ATOM     30  C20 UNL     1      32.322  28.556  24.877  0.00  0.00    +0.000 C 
ATOM     31  C21 UNL     1      32.394  27.660  23.881  0.00  0.00    +0.000 C 
ATOM     32  H28 UNL     1      31.478  28.538  25.563  0.00  0.00    +0.000 HD
ATOM     33  H29 UNL     1      33.245  27.663  23.202  0.00  0.00    +0.000 HD
BRANCH  31  34
ATOM     34  C22 UNL     1      31.425  26.611  23.669  0.00  0.00    +0.000 C 
ATOM     35  C23 UNL     1      31.430  25.650  22.730  0.00  0.00    +0.000 C 
ATOM     36  H30 UNL     1      30.610  26.610  24.392  0.00  0.00    +0.000 HD
ATOM     37  H31 UNL     1      30.611  24.941  22.715  0.00  0.00    +0.000 HD
BRANCH  35  38
ATOM     38  C24 UNL     1      32.497  25.414  21.728  0.00  0.00    +0.000 C 
ATOM     39  N1  UNL     1      32.159  25.827  20.476  0.00  0.00    +0.000 N 
ATOM     40  O4  UNL     1      33.576  24.890  21.955  0.00  0.00    +0.000 OA
ATOM     41  H32 UNL     1      31.307  26.321  20.254  0.00  0.00    +0.000 HD
ATOM     42  H33 UNL     1      32.856  25.710  19.751  0.00  0.00    +0.000 HD
ENDBRANCH  35  38
ENDBRANCH  31  34
ENDBRANCH  27  30
ENDBRANCH  25  27
BRANCH  25  43
ATOM     43  O3  UNL     1      31.965  29.935  27.053  0.00  0.00    +0.000 OA
ATOM     44  H25 UNL     1      31.967  30.193  27.991  0.00  0.00    +0.000 HD
ENDBRANCH  25  43
ENDBRANCH  19  25
ENDBRANCH   1  19
BRANCH   1  45
ATOM     45  O1  UNL     1      34.895  31.631  28.805  0.00  0.00    +0.000 OA
BRANCH  45  46
ATOM     46  C7  UNL     1      34.899  32.956  28.517  0.00  0.00    +0.000 C 
ATOM     47  O2  UNL     1      34.933  33.471  27.411  0.00  0.00    +0.000 OA
BRANCH  46  48
ATOM     48  C8  UNL     1      34.904  33.689  29.799  0.00  0.00    +0.000 C 
ATOM     49  C9  UNL     1      34.057  34.712  29.992  0.00  0.00    +0.000 C 
ATOM     50  H13 UNL     1      35.608  33.353  30.550  0.00  0.00    +0.000 HD
ATOM     51  H14 UNL     1      33.350  34.989  29.211  0.00  0.00    +0.000 HD
BRANCH  49  52
ATOM     52  C10 UNL     1      33.992  35.502  31.227  0.00  0.00    +0.000 A 
ATOM     53  C11 UNL     1      34.471  35.020  32.453  0.00  0.00    +0.000 A 
ATOM     54  C12 UNL     1      34.419  35.817  33.600  0.00  0.00    +0.000 A 
ATOM     55  C13 UNL     1      33.898  37.107  33.532  0.00  0.00    +0.000 A 
ATOM     56  C14 UNL     1      33.434  37.603  32.317  0.00  0.00    +0.000 A 
ATOM     57  C15 UNL     1      33.485  36.807  31.170  0.00  0.00    +0.000 A 
ATOM     58  H15 UNL     1      34.903  34.026  32.529  0.00  0.00    +0.000 HD
ATOM     59  H16 UNL     1      34.792  35.430  34.546  0.00  0.00    +0.000 HD
ATOM     60  H17 UNL     1      33.859  37.726  34.425  0.00  0.00    +0.000 HD
ATOM     61  H18 UNL     1      33.030  38.611  32.259  0.00  0.00    +0.000 HD
ATOM     62  H19 UNL     1      33.120  37.215  30.229  0.00  0.00    +0.000 HD
ENDBRANCH  49  52
ENDBRANCH  46  48
ENDBRANCH  45  46
ENDBRANCH   1  45
TORSDOF 17
ENDMDL
