MODEL 1
REMARK VINA RESULT:     0.000      0.000      0.000
REMARK INTER + INTRA:          -2.550
REMARK INTER:                   0.000
REMARK INTRA:                  -2.550
REMARK UNBOUND:                -2.550
REMARK  Name = /home/ubuntu/ubp_medicine_study/real_molecular_docking/ligands_pdbqt/NOVEL_0078.pdb
REMARK  14 active torsions:
REMARK  status: ('A' for Active; 'I' for Inactive)
REMARK    1  A    between atoms: C3_5  and  C4_6
REMARK    2  A    between atoms: C4_6  and  O2_7
REMARK    3  A    between atoms: C4_6  and  C5_8
REMARK    4  A    between atoms: C5_8  and  O3_9
REMARK    5  A    between atoms: C5_8  and  C6_10
REMARK    6  A    between atoms: C6_10  and  O4_11
REMARK    7  A    between atoms: C6_10  and  C7_12
REMARK    8  A    between atoms: C7_12  and  O5_13
REMARK    9  A    between atoms: C7_12  and  C8_14
REMARK   10  A    between atoms: C8_14  and  O6_15
REMARK   11  A    between atoms: N1_16  and  C9_17
REMARK   12  A    between atoms: C12_20  and  S2_21
REMARK   13  A    between atoms: S2_21  and  N2_24
REMARK   14  A    between atoms: N2_24  and  C13_25
REMARK                            x       y       z     vdW  Elec       q    Type
REMARK                         _______ _______ _______ _____ _____    ______ ____
ROOT
ATOM      1  O1  UNL     1      45.098  54.940  44.772  0.00  0.00    +0.000 OA
ATOM      2  C1  UNL     1      44.161  54.232  45.133  0.00  0.00    +0.000 C 
ATOM      3  C2  UNL     1      42.737  54.726  44.982  0.00  0.00    +0.000 C 
ATOM      4  S1  UNL     1      41.666  53.338  45.370  0.00  0.00    +0.000 S 
ATOM      5  C3  UNL     1      42.970  52.519  46.352  0.00  0.00    +0.000 C 
ATOM      6  N1  UNL     1      44.221  52.953  45.715  0.00  0.00    +0.000 N 
ATOM      7  H1  UNL     1      42.560  55.553  45.675  0.00  0.00    +0.000 HD
ATOM      8  H2  UNL     1      42.566  55.051  43.952  0.00  0.00    +0.000 HD
ATOM      9  H3  UNL     1      42.838  51.441  46.228  0.00  0.00    +0.000 HD
ENDROOT
BRANCH   6  10
ATOM     10  C9  UNL     1      45.407  52.138  45.750  0.00  0.00    +0.000 A 
ATOM     11  C10 UNL     1      46.517  52.482  46.544  0.00  0.00    +0.000 A 
ATOM     12  C11 UNL     1      47.668  51.682  46.598  0.00  0.00    +0.000 A 
ATOM     13  C12 UNL     1      47.729  50.513  45.847  0.00  0.00    +0.000 A 
ATOM     14  C18 UNL     1      46.639  50.124  45.076  0.00  0.00    +0.000 A 
ATOM     15  C19 UNL     1      45.494  50.932  45.032  0.00  0.00    +0.000 A 
ATOM     16  H15 UNL     1      46.540  53.389  47.142  0.00  0.00    +0.000 HD
ATOM     17  H16 UNL     1      48.505  51.992  47.220  0.00  0.00    +0.000 HD
ATOM     18  H22 UNL     1      46.657  49.196  44.510  0.00  0.00    +0.000 HD
ATOM     19  H23 UNL     1      44.671  50.560  44.429  0.00  0.00    +0.000 HD
BRANCH  13  20
ATOM     20  S2  UNL     1      49.167  49.471  45.925  0.00  0.00    +0.000 S 
ATOM     21  O7  UNL     1      48.968  48.363  45.013  0.00  0.00    +0.000 OA
ATOM     22  O8  UNL     1      50.326  50.330  45.800  0.00  0.00    +0.000 OA
BRANCH  20  23
ATOM     23  N2  UNL     1      49.159  48.901  47.509  0.00  0.00    +0.000 N 
ATOM     24  H17 UNL     1      48.642  49.534  48.118  0.00  0.00    +0.000 HD
BRANCH  23  25
ATOM     25  C13 UNL     1      48.712  47.579  47.695  0.00  0.00    +0.000 A 
ATOM     26  C14 UNL     1      49.564  46.492  47.755  0.00  0.00    +0.000 A 
ATOM     27  C15 UNL     1      49.001  45.232  47.909  0.00  0.00    +0.000 A 
ATOM     28  C16 UNL     1      47.619  45.114  48.003  0.00  0.00    +0.000 A 
ATOM     29  C17 UNL     1      46.853  46.271  47.943  0.00  0.00    +0.000 A 
ATOM     30  N3  UNL     1      47.373  47.509  47.794  0.00  0.00    +0.000 NA
ATOM     31  H18 UNL     1      50.642  46.617  47.683  0.00  0.00    +0.000 HD
ATOM     32  H19 UNL     1      49.631  44.350  47.958  0.00  0.00    +0.000 HD
ATOM     33  H20 UNL     1      47.145  44.144  48.124  0.00  0.00    +0.000 HD
ATOM     34  H21 UNL     1      45.767  46.229  48.018  0.00  0.00    +0.000 HD
ENDBRANCH  23  25
ENDBRANCH  20  23
ENDBRANCH  13  20
ENDBRANCH   6  10
BRANCH   5  35
ATOM     35  C4  UNL     1      42.876  52.941  47.852  0.00  0.00    +0.000 C 
ATOM     36  H4  UNL     1      41.900  53.411  48.036  0.00  0.00    +0.000 HD
BRANCH  35  37
ATOM     37  O2  UNL     1      43.832  53.972  48.163  0.00  0.00    +0.000 OA
ATOM     38  H5  UNL     1      44.582  53.499  48.575  0.00  0.00    +0.000 HD
ENDBRANCH  35  37
BRANCH  35  39
ATOM     39  C5  UNL     1      43.047  51.798  48.890  0.00  0.00    +0.000 C 
ATOM     40  H6  UNL     1      42.506  50.914  48.536  0.00  0.00    +0.000 HD
BRANCH  39  41
ATOM     41  O3  UNL     1      42.369  52.247  50.090  0.00  0.00    +0.000 OA
ATOM     42  H7  UNL     1      43.072  52.341  50.779  0.00  0.00    +0.000 HD
ENDBRANCH  39  41
BRANCH  39  43
ATOM     43  C6  UNL     1      44.512  51.420  49.239  0.00  0.00    +0.000 C 
ATOM     44  H8  UNL     1      45.210  51.782  48.482  0.00  0.00    +0.000 HD
BRANCH  43  45
ATOM     45  O4  UNL     1      44.879  52.057  50.469  0.00  0.00    +0.000 OA
ATOM     46  H9  UNL     1      44.112  51.940  51.066  0.00  0.00    +0.000 HD
ENDBRANCH  43  45
BRANCH  43  47
ATOM     47  C7  UNL     1      44.726  49.900  49.410  0.00  0.00    +0.000 C 
ATOM     48  H10 UNL     1      43.814  49.438  49.811  0.00  0.00    +0.000 HD
BRANCH  47  49
ATOM     49  C8  UNL     1      45.916  49.555  50.313  0.00  0.00    +0.000 C 
ATOM     50  H12 UNL     1      45.858  50.072  51.275  0.00  0.00    +0.000 HD
ATOM     51  H13 UNL     1      45.989  48.476  50.480  0.00  0.00    +0.000 HD
BRANCH  49  52
ATOM     52  O6  UNL     1      47.105  50.011  49.665  0.00  0.00    +0.000 OA
ATOM     53  H14 UNL     1      47.257  50.933  49.953  0.00  0.00    +0.000 HD
ENDBRANCH  49  52
ENDBRANCH  47  49
BRANCH  47  54
ATOM     54  O5  UNL     1      44.943  49.283  48.122  0.00  0.00    +0.000 OA
ATOM     55  H11 UNL     1      45.858  48.927  48.182  0.00  0.00    +0.000 HD
ENDBRANCH  47  54
ENDBRANCH  43  47
ENDBRANCH  39  43
ENDBRANCH  35  39
ENDBRANCH   5  35
TORSDOF 14
ENDMDL
