MODEL 1
REMARK VINA RESULT:    -2.622      0.000      0.000
REMARK INTER + INTRA:          -2.942
REMARK INTER:                  -3.235
REMARK INTRA:                   0.292
REMARK UNBOUND:                 0.292
REMARK  Name = /home/ubuntu/ubp_medicine_study/real_molecular_docking/ligands_pdbqt/NOVEL_0081.pdb
REMARK  5 active torsions:
REMARK  status: ('A' for Active; 'I' for Inactive)
REMARK    1  A    between atoms: C1_1  and  N1_2
REMARK    2  A    between atoms: N3_9  and  C6_10
REMARK    3  A    between atoms: C6_10  and  C7_11
REMARK    4  A    between atoms: C9_16  and  C10_17
REMARK    5  A    between atoms: N6_26  and  C17_27
REMARK                            x       y       z     vdW  Elec       q    Type
REMARK                         _______ _______ _______ _____ _____    ______ ____
ROOT
ATOM      1  C6  UNL     1      41.243  28.700  30.375  0.00  0.00    +0.000 C 
ATOM      2  H5  UNL     1      41.160  27.924  31.151  0.00  0.00    +0.000 HD
ATOM      3  H6  UNL     1      41.307  29.664  30.891  0.00  0.00    +0.000 HD
ENDROOT
BRANCH   1  11
ATOM      4  N1  UNL     1      45.600  29.640  31.226  0.00  0.00    +0.000 N 
ATOM      5  C2  UNL     1      44.221  29.441  31.227  0.00  0.00    +0.000 A 
ATOM      6  O1  UNL     1      43.457  29.761  32.135  0.00  0.00    +0.000 OA
ATOM      7  C3  UNL     1      43.739  28.825  30.032  0.00  0.00    +0.000 A 
ATOM      8  C4  UNL     1      44.542  28.465  28.995  0.00  0.00    +0.000 A 
ATOM      9  N2  UNL     1      43.832  27.898  27.970  0.00  0.00    +0.000 NA
ATOM     10  C5  UNL     1      42.578  27.897  28.395  0.00  0.00    +0.000 A 
ATOM     11  N3  UNL     1      42.472  28.468  29.641  0.00  0.00    +0.000 N 
ATOM     12  N6  UNL     1      45.901  28.691  29.032  0.00  0.00    +0.000 N 
ATOM     13  C18 UNL     1      46.469  29.317  30.153  0.00  0.00    +0.000 A 
ATOM     14  O3  UNL     1      47.674  29.587  30.215  0.00  0.00    +0.000 OA
ATOM     15  H4  UNL     1      41.725  27.507  27.850  0.00  0.00    +0.000 HD
BRANCH   4  16
ATOM     16  C1  UNL     1      46.212  30.286  32.378  0.00  0.00    +0.000 C 
ATOM     17  H1  UNL     1      46.425  29.533  33.155  0.00  0.00    +0.000 HD
ATOM     18  H2  UNL     1      47.168  30.736  32.056  0.00  0.00    +0.000 HD
ATOM     19  H3  UNL     1      45.582  31.069  32.810  0.00  0.00    +0.000 HD
ENDBRANCH   4  16
BRANCH  12  20
ATOM     20  C17 UNL     1      46.727  28.328  27.889  0.00  0.00    +0.000 C 
ATOM     21  H13 UNL     1      47.776  28.313  28.205  0.00  0.00    +0.000 HD
ATOM     22  H14 UNL     1      46.596  29.067  27.099  0.00  0.00    +0.000 HD
ATOM     23  H15 UNL     1      46.466  27.335  27.504  0.00  0.00    +0.000 HD
ENDBRANCH  12  20
ENDBRANCH   1  11
BRANCH   1  24
ATOM     24  C7  UNL     1      40.040  28.718  29.452  0.00  0.00    +0.000 C 
ATOM     25  O2  UNL     1      40.175  29.036  28.276  0.00  0.00    +0.000 OA
ATOM     26  N4  UNL     1      38.864  28.388  30.092  0.00  0.00    +0.000 N 
ATOM     27  C8  UNL     1      37.603  28.332  29.548  0.00  0.00    +0.000 A 
ATOM     28  N5  UNL     1      36.543  28.179  30.312  0.00  0.00    +0.000 NA
ATOM     29  C9  UNL     1      35.393  28.170  29.530  0.00  0.00    +0.000 A 
ATOM     30  C16 UNL     1      35.625  28.299  28.172  0.00  0.00    +0.000 A 
ATOM     31  S1  UNL     1      37.309  28.448  27.875  0.00  0.00    +0.000 S 
ATOM     32  H7  UNL     1      38.857  28.199  31.089  0.00  0.00    +0.000 HD
ATOM     33  H12 UNL     1      34.923  28.337  27.353  0.00  0.00    +0.000 HD
BRANCH  29  34
ATOM     34  C10 UNL     1      34.068  28.069  30.148  0.00  0.00    +0.000 A 
ATOM     35  C11 UNL     1      32.887  28.013  29.389  0.00  0.00    +0.000 A 
ATOM     36  C12 UNL     1      31.630  27.945  30.019  0.00  0.00    +0.000 A 
ATOM     37  C13 UNL     1      31.547  27.934  31.412  0.00  0.00    +0.000 A 
ATOM     38 BR1  UNL     1      29.849  27.876  32.255  0.00  0.00    +0.000 Br
ATOM     39  C14 UNL     1      32.712  27.978  32.179  0.00  0.00    +0.000 A 
ATOM     40  C15 UNL     1      33.963  28.039  31.550  0.00  0.00    +0.000 A 
ATOM     41  H8  UNL     1      32.922  28.016  28.298  0.00  0.00    +0.000 HD
ATOM     42  H9  UNL     1      30.727  27.910  29.414  0.00  0.00    +0.000 HD
ATOM     43  H10 UNL     1      32.664  27.977  33.259  0.00  0.00    +0.000 HD
ATOM     44  H11 UNL     1      34.863  28.077  32.165  0.00  0.00    +0.000 HD
ENDBRANCH  29  34
ENDBRANCH   1  24
TORSDOF 5
ENDMDL
