MODEL 1
REMARK VINA RESULT:     0.000      0.000      0.000
REMARK INTER + INTRA:          -1.694
REMARK INTER:                   0.000
REMARK INTRA:                  -1.694
REMARK UNBOUND:                -1.694
REMARK  Name = /home/ubuntu/ubp_medicine_study/real_molecular_docking/ligands_pdbqt/NOVEL_0079.pdb
REMARK  9 active torsions:
REMARK  status: ('A' for Active; 'I' for Inactive)
REMARK    1  A    between atoms: O1_1  and  C1_2
REMARK    2  A    between atoms: C1_2  and  C2_3
REMARK    3  A    between atoms: C3_5  and  N1_6
REMARK    4  A    between atoms: C6_10  and  N3_11
REMARK    5  A    between atoms: N3_11  and  C7_12
REMARK    6  A    between atoms: C7_12  and  C8_13
REMARK    7  A    between atoms: C8_13  and  C9_14
REMARK    8  A    between atoms: C14_23  and  O3_24
REMARK    9  A    between atoms: C15_25  and  O4_26
REMARK                            x       y       z     vdW  Elec       q    Type
REMARK                         _______ _______ _______ _____ _____    ______ ____
ROOT
ATOM      1  N1  UNL     1      51.457  53.660  52.553  0.00  0.00    +0.000 N 
ATOM      2  C4  UNL     1      50.901  52.548  51.985  0.00  0.00    +0.000 A 
ATOM      3  N2  UNL     1      49.630  52.734  51.691  0.00  0.00    +0.000 NA
ATOM      4  C5  UNL     1      49.359  54.036  52.066  0.00  0.00    +0.000 A 
ATOM      5  C6  UNL     1      48.192  54.825  52.008  0.00  0.00    +0.000 A 
ATOM      6  N6  UNL     1      48.271  56.096  52.491  0.00  0.00    +0.000 NA
ATOM      7  C12 UNL     1      49.445  56.536  52.991  0.00  0.00    +0.000 A 
ATOM      8  N7  UNL     1      50.612  55.869  53.101  0.00  0.00    +0.000 NA
ATOM      9  C13 UNL     1      50.488  54.625  52.610  0.00  0.00    +0.000 A 
ATOM     10  H6  UNL     1      51.456  51.636  51.803  0.00  0.00    +0.000 HD
ATOM     11  H15 UNL     1      49.444  57.560  53.354  0.00  0.00    +0.000 HD
ENDROOT
BRANCH   1  14
ATOM     12  C2  UNL     1      54.422  52.178  53.328  0.00  0.00    +0.000 C 
ATOM     13  O2  UNL     1      53.697  52.930  52.328  0.00  0.00    +0.000 OA
ATOM     14  C3  UNL     1      52.815  53.842  53.027  0.00  0.00    +0.000 C 
ATOM     15  C14 UNL     1      52.963  53.577  54.534  0.00  0.00    +0.000 C 
ATOM     16  C15 UNL     1      53.530  52.167  54.559  0.00  0.00    +0.000 C 
ATOM     17  H4  UNL     1      55.366  52.705  53.514  0.00  0.00    +0.000 HD
ATOM     18  H5  UNL     1      53.116  54.861  52.757  0.00  0.00    +0.000 HD
ATOM     19  H16 UNL     1      52.044  53.661  55.120  0.00  0.00    +0.000 HD
ATOM     20  H18 UNL     1      52.721  51.435  54.447  0.00  0.00    +0.000 HD
BRANCH  12  21
ATOM     21  C1  UNL     1      54.724  50.783  52.793  0.00  0.00    +0.000 C 
ATOM     22  H2  UNL     1      54.312  50.643  51.788  0.00  0.00    +0.000 HD
ATOM     23  H3  UNL     1      55.801  50.593  52.764  0.00  0.00    +0.000 HD
BRANCH  21  24
ATOM     24  O1  UNL     1      54.146  49.799  53.654  0.00  0.00    +0.000 OA
ATOM     25  H1  UNL     1      54.800  49.637  54.359  0.00  0.00    +0.000 HD
ENDBRANCH  21  24
ENDBRANCH  12  21
BRANCH  15  26
ATOM     26  O3  UNL     1      53.929  54.464  55.134  0.00  0.00    +0.000 OA
ATOM     27  H17 UNL     1      54.572  54.695  54.437  0.00  0.00    +0.000 HD
ENDBRANCH  15  26
BRANCH  16  28
ATOM     28  O4  UNL     1      54.241  51.897  55.756  0.00  0.00    +0.000 OA
ATOM     29  H19 UNL     1      54.278  52.748  56.241  0.00  0.00    +0.000 HD
ENDBRANCH  16  28
ENDBRANCH   1  14
BRANCH   5  30
ATOM     30  N3  UNL     1      47.001  54.343  51.462  0.00  0.00    +0.000 N 
ATOM     31  H7  UNL     1      47.148  53.415  51.046  0.00  0.00    +0.000 HD
BRANCH  30  32
ATOM     32  C7  UNL     1      45.846  54.386  52.355  0.00  0.00    +0.000 C 
ATOM     33  H8  UNL     1      46.151  54.689  53.365  0.00  0.00    +0.000 HD
ATOM     34  H9  UNL     1      45.125  55.122  51.980  0.00  0.00    +0.000 HD
BRANCH  32  35
ATOM     35  C8  UNL     1      45.153  53.020  52.411  0.00  0.00    +0.000 C 
ATOM     36  H10 UNL     1      44.593  52.951  53.352  0.00  0.00    +0.000 HD
ATOM     37  H11 UNL     1      44.424  52.929  51.597  0.00  0.00    +0.000 HD
BRANCH  35  38
ATOM     38  C9  UNL     1      46.111  51.878  52.333  0.00  0.00    +0.000 A 
ATOM     39  C10 UNL     1      46.846  51.287  53.339  0.00  0.00    +0.000 A 
ATOM     40  N4  UNL     1      47.550  50.285  52.731  0.00  0.00    +0.000 N 
ATOM     41  C11 UNL     1      47.226  50.300  51.405  0.00  0.00    +0.000 A 
ATOM     42  N5  UNL     1      46.361  51.248  51.134  0.00  0.00    +0.000 NA
ATOM     43  H12 UNL     1      46.923  51.484  54.399  0.00  0.00    +0.000 HD
ATOM     44  H13 UNL     1      48.191  49.643  53.175  0.00  0.00    +0.000 HD
ATOM     45  H14 UNL     1      47.646  49.602  50.693  0.00  0.00    +0.000 HD
ENDBRANCH  35  38
ENDBRANCH  32  35
ENDBRANCH  30  32
ENDBRANCH   5  30
TORSDOF 9
ENDMDL
