REMARK  Name = /home/ubuntu/ubp_medicine_study/real_molecular_docking/ligands_pdbqt/NOVEL_0069.pdb
REMARK  5 active torsions:
REMARK  status: ('A' for Active; 'I' for Inactive)
REMARK    1  A    between atoms: C1_1  and  N1_2
REMARK    2  A    between atoms: N3_9  and  C6_10
REMARK    3  A    between atoms: C6_10  and  C7_11
REMARK    4  A    between atoms: C9_16  and  C10_17
REMARK    5  A    between atoms: N6_26  and  C17_27
REMARK                            x       y       z     vdW  Elec       q    Type
REMARK                         _______ _______ _______ _____ _____    ______ ____
ROOT
ATOM      1  C6  UNL     1      -0.756   1.314  -2.476  0.00  0.00    +0.000 C 
ATOM      2  H5  UNL     1      -0.962   0.249  -2.658  0.00  0.00    +0.000 HD
ATOM      3  H6  UNL     1      -0.529   1.768  -3.447  0.00  0.00    +0.000 HD
ENDROOT
BRANCH   1  11
ATOM      4  N1  UNL     1      -3.899  -0.110   0.472  0.00  0.00    +0.000 N 
ATOM      5  C2  UNL     1      -2.800   0.092  -0.361  0.00  0.00    +0.000 A 
ATOM      6  O1  UNL     1      -1.882  -0.707  -0.534  0.00  0.00    +0.000 OA
ATOM      7  C3  UNL     1      -2.831   1.347  -1.041  0.00  0.00    +0.000 A 
ATOM      8  C4  UNL     1      -3.830   2.258  -0.893  0.00  0.00    +0.000 A 
ATOM      9  N2  UNL     1      -3.622   3.375  -1.658  0.00  0.00    +0.000 NA
ATOM     10  C5  UNL     1      -2.470   3.149  -2.271  0.00  0.00    +0.000 A 
ATOM     11  N3  UNL     1      -1.960   1.917  -1.937  0.00  0.00    +0.000 N 
ATOM     12  N6  UNL     1      -4.905   2.012  -0.066  0.00  0.00    +0.000 N 
ATOM     13  C18 UNL     1      -4.981   0.793   0.627  0.00  0.00    +0.000 A 
ATOM     14  O3  UNL     1      -5.947   0.502   1.342  0.00  0.00    +0.000 OA
ATOM     15  H4  UNL     1      -1.973   3.828  -2.955  0.00  0.00    +0.000 HD
BRANCH   4  16
ATOM     16  C1  UNL     1      -3.999  -1.366   1.202  0.00  0.00    +0.000 C 
ATOM     17  H1  UNL     1      -4.226  -1.161   2.262  0.00  0.00    +0.000 HD
ATOM     18  H2  UNL     1      -4.832  -1.950   0.773  0.00  0.00    +0.000 HD
ATOM     19  H3  UNL     1      -3.084  -1.962   1.147  0.00  0.00    +0.000 HD
ENDBRANCH   4  16
BRANCH  12  20
ATOM     20  C17 UNL     1      -5.976   2.992   0.041  0.00  0.00    +0.000 C 
ATOM     21  H13 UNL     1      -6.471   3.079  -0.932  0.00  0.00    +0.000 HD
ATOM     22  H14 UNL     1      -5.555   3.958   0.323  0.00  0.00    +0.000 HD
ATOM     23  H15 UNL     1      -6.723   2.691   0.785  0.00  0.00    +0.000 HD
ENDBRANCH  12  20
ENDBRANCH   1  11
BRANCH   1  24
ATOM     24  C7  UNL     1       0.429   1.519  -1.552  0.00  0.00    +0.000 C 
ATOM     25  O2  UNL     1       0.793   2.654  -1.266  0.00  0.00    +0.000 OA
ATOM     26  N4  UNL     1       1.008   0.335  -1.147  0.00  0.00    +0.000 N 
ATOM     27  C8  UNL     1       2.102   0.176  -0.331  0.00  0.00    +0.000 A 
ATOM     28  N5  UNL     1       2.660  -1.005  -0.171  0.00  0.00    +0.000 NA
ATOM     29  C9  UNL     1       3.753  -0.901   0.683  0.00  0.00    +0.000 A 
ATOM     30  C16 UNL     1       3.980   0.376   1.166  0.00  0.00    +0.000 A 
ATOM     31  S1  UNL     1       2.813   1.462   0.528  0.00  0.00    +0.000 S 
ATOM     32  H7  UNL     1       0.660  -0.553  -1.495  0.00  0.00    +0.000 HD
ATOM     33  H12 UNL     1       4.756   0.737   1.824  0.00  0.00    +0.000 HD
BRANCH  29  34
ATOM     34  C10 UNL     1       4.585  -2.070   0.981  0.00  0.00    +0.000 A 
ATOM     35  C11 UNL     1       5.450  -2.114   2.087  0.00  0.00    +0.000 A 
ATOM     36  C12 UNL     1       6.255  -3.244   2.325  0.00  0.00    +0.000 A 
ATOM     37  C13 UNL     1       6.199  -4.336   1.458  0.00  0.00    +0.000 A 
ATOM     38 BR1  UNL     1       7.311  -5.842   1.766  0.00  0.00    +0.000 Br
ATOM     39  C14 UNL     1       5.337  -4.311   0.362  0.00  0.00    +0.000 A 
ATOM     40  C15 UNL     1       4.531  -3.187   0.130  0.00  0.00    +0.000 A 
ATOM     41  H8  UNL     1       5.511  -1.276   2.784  0.00  0.00    +0.000 HD
ATOM     42  H9  UNL     1       6.924  -3.256   3.183  0.00  0.00    +0.000 HD
ATOM     43  H10 UNL     1       5.287  -5.146  -0.323  0.00  0.00    +0.000 HD
ATOM     44  H11 UNL     1       3.866  -3.183  -0.734  0.00  0.00    +0.000 HD
ENDBRANCH  29  34
ENDBRANCH   1  24
TORSDOF 5
