REMARK  Name = /home/ubuntu/ubp_medicine_study/real_molecular_docking/ligands_pdbqt/NOVEL_0058.pdb
REMARK  7 active torsions:
REMARK  status: ('A' for Active; 'I' for Inactive)
REMARK    1  A    between atoms: C1_1  and  C2_2
REMARK    2  A    between atoms: C2_2  and  C3_3
REMARK    3  A    between atoms: C8_11  and  C9_12
REMARK    4  A    between atoms: C12_15  and  C13_16
REMARK    5  A    between atoms: N3_18  and  C14_19
REMARK    6  A    between atoms: C14_19  and  C15_20
REMARK    7  A    between atoms: C15_20  and  C16_21
REMARK                            x       y       z     vdW  Elec       q    Type
REMARK                         _______ _______ _______ _____ _____    ______ ____
ROOT
ATOM      1  C2  UNL     1      -0.303   0.106   3.268  0.00  0.00    +0.000 C 
ATOM      2  O1  UNL     1      -0.899   1.075   4.172  0.00  0.00    +0.000 OA
ATOM      3  C4  UNL     1      -2.071   1.682   3.907  0.00  0.00    +0.000 C 
ATOM      4  S1  UNL     1      -2.766   2.568   5.123  0.00  0.00    +0.000 S 
ATOM      5  N1  UNL     1      -2.612   1.581   2.664  0.00  0.00    +0.000 N 
ATOM      6  C5  UNL     1      -2.010   0.898   1.614  0.00  0.00    +0.000 A 
ATOM      7  C6  UNL     1      -2.588   0.943   0.345  0.00  0.00    +0.000 A 
ATOM      8  C7  UNL     1      -1.985   0.262  -0.713  0.00  0.00    +0.000 A 
ATOM      9  C8  UNL     1      -0.807  -0.460  -0.505  0.00  0.00    +0.000 A 
ATOM     10  C17 UNL     1      -0.255  -0.515   0.782  0.00  0.00    +0.000 A 
ATOM     11  C18 UNL     1      -0.846   0.176   1.855  0.00  0.00    +0.000 A 
ATOM     12  H7  UNL     1      -3.470   2.095   2.505  0.00  0.00    +0.000 HD
ATOM     13  H8  UNL     1      -3.502   1.502   0.165  0.00  0.00    +0.000 HD
ATOM     14  H9  UNL     1      -2.440   0.300  -1.701  0.00  0.00    +0.000 HD
ATOM     15  H18 UNL     1       0.632  -1.124   0.948  0.00  0.00    +0.000 HD
ENDROOT
BRANCH   9  16
ATOM     16  C9  UNL     1      -0.186  -1.181  -1.614  0.00  0.00    +0.000 A 
ATOM     17  C10 UNL     1      -0.697  -2.261  -2.314  0.00  0.00    +0.000 A 
ATOM     18  C11 UNL     1       0.256  -2.652  -3.279  0.00  0.00    +0.000 A 
ATOM     19  C12 UNL     1       1.333  -1.799  -3.168  0.00  0.00    +0.000 A 
ATOM     20  N3  UNL     1       1.046  -0.879  -2.178  0.00  0.00    +0.000 N 
ATOM     21  H10 UNL     1      -1.654  -2.734  -2.126  0.00  0.00    +0.000 HD
ATOM     22  H11 UNL     1       0.170  -3.479  -3.974  0.00  0.00    +0.000 HD
BRANCH  20  23
ATOM     23  C14 UNL     1       1.909   0.233  -1.793  0.00  0.00    +0.000 C 
ATOM     24  H12 UNL     1       2.907   0.064  -2.211  0.00  0.00    +0.000 HD
ATOM     25  H13 UNL     1       2.028   0.186  -0.705  0.00  0.00    +0.000 HD
BRANCH  23  26
ATOM     26  C15 UNL     1       1.388   1.610  -2.207  0.00  0.00    +0.000 C 
ATOM     27  H14 UNL     1       0.404   1.808  -1.773  0.00  0.00    +0.000 HD
ATOM     28  H15 UNL     1       2.075   2.363  -1.803  0.00  0.00    +0.000 HD
BRANCH  26  29
ATOM     29  C16 UNL     1       1.315   1.782  -3.712  0.00  0.00    +0.000 C 
ATOM     30  F1  UNL     1       2.556   1.599  -4.232  0.00  0.00    +0.000 F 
ATOM     31  H16 UNL     1       0.634   1.068  -4.183  0.00  0.00    +0.000 HD
ATOM     32  H17 UNL     1       0.990   2.794  -3.971  0.00  0.00    +0.000 HD
ENDBRANCH  26  29
ENDBRANCH  23  26
ENDBRANCH  20  23
BRANCH  19  33
ATOM     33  C13 UNL     1       2.531  -1.859  -3.939  0.00  0.00    +0.000 C 
ATOM     34  N2  UNL     1       3.512  -1.921  -4.554  0.00  0.00    +0.000 NA
ENDBRANCH  19  33
ENDBRANCH   9  16
BRANCH   1  35
ATOM     35  C1  UNL     1      -0.583  -1.276   3.873  0.00  0.00    +0.000 C 
ATOM     36  H1  UNL     1      -1.660  -1.482   3.897  0.00  0.00    +0.000 HD
ATOM     37  H2  UNL     1      -0.098  -2.080   3.309  0.00  0.00    +0.000 HD
ATOM     38  H3  UNL     1      -0.235  -1.326   4.911  0.00  0.00    +0.000 HD
ENDBRANCH   1  35
BRANCH   1  39
ATOM     39  C3  UNL     1       1.203   0.403   3.313  0.00  0.00    +0.000 C 
ATOM     40  H4  UNL     1       1.417   1.388   2.881  0.00  0.00    +0.000 HD
ATOM     41  H5  UNL     1       1.562   0.435   4.349  0.00  0.00    +0.000 HD
ATOM     42  H6  UNL     1       1.797  -0.342   2.775  0.00  0.00    +0.000 HD
ENDBRANCH   1  39
TORSDOF 7
