REMARK  Name = /home/ubuntu/ubp_medicine_study/real_molecular_docking/ligands_pdbqt/NOVEL_0031.pdb
REMARK  9 active torsions:
REMARK  status: ('A' for Active; 'I' for Inactive)
REMARK    1  A    between atoms: C1_1  and  C2_2
REMARK    2  A    between atoms: N1_4  and  C3_5
REMARK    3  A    between atoms: C3_5  and  C4_6
REMARK    4  A    between atoms: C4_6  and  C5_7
REMARK    5  A    between atoms: C5_7  and  N2_8
REMARK    6  A    between atoms: C5_7  and  C12_19
REMARK    7  A    between atoms: N2_8  and  S1_9
REMARK    8  A    between atoms: S1_9  and  C6_12
REMARK    9  A    between atoms: N3_21  and  O5_22
REMARK                            x       y       z     vdW  Elec       q    Type
REMARK                         _______ _______ _______ _____ _____    ______ ____
ROOT
ATOM      1  C5  UNL     1      -0.092  -1.587  -0.139  0.00  0.00    +0.000 C 
ATOM      2  H9  UNL     1       0.860  -1.784  -0.647  0.00  0.00    +0.000 HD
ENDROOT
BRANCH   1   3
ATOM      3  C12 UNL     1      -0.519  -2.843   0.625  0.00  0.00    +0.000 C 
ATOM      4  O4  UNL     1      -1.131  -2.789   1.694  0.00  0.00    +0.000 OA
ATOM      5  N3  UNL     1      -0.211  -4.036   0.011  0.00  0.00    +0.000 N 
ATOM      6  H15 UNL     1       0.639  -4.123  -0.540  0.00  0.00    +0.000 HD
BRANCH   5   7
ATOM      7  O5  UNL     1      -0.532  -5.186   0.778  0.00  0.00    +0.000 OA
ATOM      8  H16 UNL     1      -0.930  -4.806   1.593  0.00  0.00    +0.000 HD
ENDBRANCH   5   7
ENDBRANCH   1   3
BRANCH   1   9
ATOM      9  C4  UNL     1      -1.107  -1.218  -1.228  0.00  0.00    +0.000 C 
ATOM     10  H7  UNL     1      -1.263  -2.094  -1.870  0.00  0.00    +0.000 HD
ATOM     11  H8  UNL     1      -0.675  -0.433  -1.863  0.00  0.00    +0.000 HD
BRANCH   9  12
ATOM     12  C3  UNL     1      -2.472  -0.753  -0.723  0.00  0.00    +0.000 C 
ATOM     13  H5  UNL     1      -3.190  -0.768  -1.552  0.00  0.00    +0.000 HD
ATOM     14  H6  UNL     1      -2.867  -1.407   0.060  0.00  0.00    +0.000 HD
BRANCH  12  17
ATOM     15  C2  UNL     1      -3.586   1.283   0.081  0.00  0.00    +0.000 C 
ATOM     16  O1  UNL     1      -4.708   0.851  -0.162  0.00  0.00    +0.000 OA
ATOM     17  N1  UNL     1      -2.427   0.600  -0.208  0.00  0.00    +0.000 N 
ATOM     18  H4  UNL     1      -1.562   0.915   0.218  0.00  0.00    +0.000 HD
BRANCH  15  19
ATOM     19  C1  UNL     1      -3.366   2.619   0.738  0.00  0.00    +0.000 C 
ATOM     20  H1  UNL     1      -3.642   2.549   1.793  0.00  0.00    +0.000 HD
ATOM     21  H2  UNL     1      -3.990   3.369   0.242  0.00  0.00    +0.000 HD
ATOM     22  H3  UNL     1      -2.323   2.939   0.663  0.00  0.00    +0.000 HD
ENDBRANCH  15  19
ENDBRANCH  12  17
ENDBRANCH   9  12
ENDBRANCH   1   9
BRANCH   1  23
ATOM     23  N2  UNL     1       0.074  -0.480   0.844  0.00  0.00    +0.000 NA
ATOM     24  H10 UNL     1      -0.618  -0.525   1.606  0.00  0.00    +0.000 HD
BRANCH  23  25
ATOM     25  S1  UNL     1       1.607  -0.347   1.550  0.00  0.00    +0.000 S 
ATOM     26  O2  UNL     1       1.413   0.307   2.822  0.00  0.00    +0.000 OA
ATOM     27  O3  UNL     1       2.270  -1.625   1.421  0.00  0.00    +0.000 OA
BRANCH  25  28
ATOM     28  C6  UNL     1       2.382   0.820   0.460  0.00  0.00    +0.000 A 
ATOM     29  C7  UNL     1       3.365   0.393  -0.438  0.00  0.00    +0.000 A 
ATOM     30  C8  UNL     1       3.968   1.323  -1.287  0.00  0.00    +0.000 A 
ATOM     31  C9  UNL     1       3.591   2.666  -1.227  0.00  0.00    +0.000 A 
ATOM     32 BR1  UNL     1       4.410   3.920  -2.380  0.00  0.00    +0.000 Br
ATOM     33  C10 UNL     1       2.618   3.093  -0.322  0.00  0.00    +0.000 A 
ATOM     34  C11 UNL     1       2.011   2.168   0.530  0.00  0.00    +0.000 A 
ATOM     35  H11 UNL     1       3.672  -0.649  -0.479  0.00  0.00    +0.000 HD
ATOM     36  H12 UNL     1       4.735   0.995  -1.986  0.00  0.00    +0.000 HD
ATOM     37  H13 UNL     1       2.332   4.141  -0.269  0.00  0.00    +0.000 HD
ATOM     38  H14 UNL     1       1.262   2.501   1.245  0.00  0.00    +0.000 HD
ENDBRANCH  25  28
ENDBRANCH  23  25
ENDBRANCH   1  23
TORSDOF 9
