REMARK  Name = /home/ubuntu/ubp_medicine_study/real_molecular_docking/ligands_pdbqt/NOVEL_0018.pdb
REMARK  6 active torsions:
REMARK  status: ('A' for Active; 'I' for Inactive)
REMARK    1  A    between atoms: N5_11  and  C6_12
REMARK    2  A    between atoms: C7_14  and  C8_15
REMARK    3  A    between atoms: C8_15  and  S1_16
REMARK    4  A    between atoms: S1_16  and  C9_17
REMARK    5  A    between atoms: C13_22  and  O2_23
REMARK    6  A    between atoms: C14_24  and  O3_25
REMARK                            x       y       z     vdW  Elec       q    Type
REMARK                         _______ _______ _______ _____ _____    ______ ____
ROOT
ATOM      1  C6  UNL     1      -1.589  -0.348   1.326  0.00  0.00    +0.000 C 
ATOM      2  O1  UNL     1      -0.314   0.278   1.605  0.00  0.00    +0.000 OA
ATOM      3  C7  UNL     1       0.692  -0.754   1.751  0.00  0.00    +0.000 C 
ATOM      4  C13 UNL     1      -0.074  -2.075   1.831  0.00  0.00    +0.000 C 
ATOM      5  C14 UNL     1      -1.286  -1.803   0.958  0.00  0.00    +0.000 C 
ATOM      6  H4  UNL     1      -2.209  -0.266   2.227  0.00  0.00    +0.000 HD
ATOM      7  H5  UNL     1       1.235  -0.562   2.683  0.00  0.00    +0.000 HD
ATOM      8  H16 UNL     1       0.496  -2.956   1.522  0.00  0.00    +0.000 HD
ATOM      9  H18 UNL     1      -1.025  -1.897  -0.103  0.00  0.00    +0.000 HD
ENDROOT
BRANCH   1  20
ATOM     10  N1  UNL     1      -5.415   2.149  -2.636  0.00  0.00    +0.000 N 
ATOM     11  C1  UNL     1      -5.097   1.397  -1.513  0.00  0.00    +0.000 A 
ATOM     12  N2  UNL     1      -6.104   0.818  -0.825  0.00  0.00    +0.000 NA
ATOM     13  C2  UNL     1      -5.783   0.100   0.270  0.00  0.00    +0.000 A 
ATOM     14 CL1  UNL     1      -7.105  -0.601   1.102  0.00  0.00    +0.000 Cl
ATOM     15  N3  UNL     1      -4.570  -0.152   0.801  0.00  0.00    +0.000 NA
ATOM     16  C3  UNL     1      -3.608   0.427   0.066  0.00  0.00    +0.000 A 
ATOM     17  C4  UNL     1      -3.776   1.198  -1.073  0.00  0.00    +0.000 A 
ATOM     18  N4  UNL     1      -2.558   1.618  -1.564  0.00  0.00    +0.000 NA
ATOM     19  C5  UNL     1      -1.670   1.134  -0.720  0.00  0.00    +0.000 A 
ATOM     20  N5  UNL     1      -2.255   0.384   0.266  0.00  0.00    +0.000 N 
ATOM     21  H1  UNL     1      -4.641   2.276  -3.278  0.00  0.00    +0.000 HD
ATOM     22  H2  UNL     1      -6.320   1.915  -3.022  0.00  0.00    +0.000 HD
ATOM     23  H3  UNL     1      -0.601   1.296  -0.776  0.00  0.00    +0.000 HD
ENDBRANCH   1  20
BRANCH   3  24
ATOM     24  C8  UNL     1       1.644  -0.725   0.544  0.00  0.00    +0.000 C 
ATOM     25  H6  UNL     1       2.299  -1.601   0.562  0.00  0.00    +0.000 HD
ATOM     26  H7  UNL     1       1.078  -0.718  -0.392  0.00  0.00    +0.000 HD
BRANCH  24  27
ATOM     27  S1  UNL     1       2.695   0.770   0.573  0.00  0.00    +0.000 S 
BRANCH  27  28
ATOM     28  C9  UNL     1       3.442   0.641  -1.085  0.00  0.00    +0.000 C 
ATOM     29  C10 UNL     1       4.316   1.848  -1.421  0.00  0.00    +0.000 C 
ATOM     30  C11 UNL     1       5.477   1.277  -2.233  0.00  0.00    +0.000 C 
ATOM     31  N6  UNL     1       5.177  -0.144  -2.425  0.00  0.00    +0.000 NA
ATOM     32  C12 UNL     1       4.397  -0.535  -1.251  0.00  0.00    +0.000 C 
ATOM     33  H8  UNL     1       2.634   0.579  -1.825  0.00  0.00    +0.000 HD
ATOM     34  H9  UNL     1       4.710   2.352  -0.529  0.00  0.00    +0.000 HD
ATOM     35  H10 UNL     1       3.750   2.585  -2.001  0.00  0.00    +0.000 HD
ATOM     36  H11 UNL     1       6.416   1.394  -1.679  0.00  0.00    +0.000 HD
ATOM     37  H12 UNL     1       5.587   1.784  -3.196  0.00  0.00    +0.000 HD
ATOM     38  H13 UNL     1       6.038  -0.685  -2.490  0.00  0.00    +0.000 HD
ATOM     39  H14 UNL     1       3.868  -1.476  -1.431  0.00  0.00    +0.000 HD
ATOM     40  H15 UNL     1       5.057  -0.661  -0.384  0.00  0.00    +0.000 HD
ENDBRANCH  27  28
ENDBRANCH  24  27
ENDBRANCH   3  24
BRANCH   4  41
ATOM     41  O2  UNL     1      -0.548  -2.315   3.168  0.00  0.00    +0.000 OA
ATOM     42  H17 UNL     1       0.229  -2.407   3.750  0.00  0.00    +0.000 HD
ENDBRANCH   4  41
BRANCH   5  43
ATOM     43  O3  UNL     1      -2.337  -2.719   1.240  0.00  0.00    +0.000 OA
ATOM     44  H19 UNL     1      -2.350  -2.823   2.215  0.00  0.00    +0.000 HD
ENDBRANCH   5  43
TORSDOF 6
