REMARK  Name = /home/ubuntu/ubp_medicine_study/real_molecular_docking/ligands_pdbqt/NOVEL_0032.pdb
REMARK  12 active torsions:
REMARK  status: ('A' for Active; 'I' for Inactive)
REMARK    1  A    between atoms: C1_1  and  C2_2
REMARK    2  A    between atoms: C2_2  and  C3_3
REMARK    3  A    between atoms: C3_3  and  N1_4
REMARK    4  A    between atoms: C3_3  and  C4_5
REMARK    5  A    between atoms: N2_7  and  C5_8
REMARK    6  A    between atoms: C10_15  and  C11_16
REMARK    7  A    between atoms: C11_16  and  C12_17
REMARK    8  A    between atoms: C12_17  and  N4_18
REMARK    9  A    between atoms: C15_21  and  C16_22
REMARK   10  A    between atoms: N5_24  and  C17_25
REMARK   11  A    between atoms: C17_25  and  C18_26
REMARK   12  A    between atoms: C17_25  and  C24_32
REMARK                            x       y       z     vdW  Elec       q    Type
REMARK                         _______ _______ _______ _____ _____    ______ ____
ROOT
ATOM      1  C5  UNL     1       2.868   0.729  -0.983  0.00  0.00    +0.000 C 
ATOM      2  C6  UNL     1       1.355   0.948  -0.725  0.00  0.00    +0.000 C 
ATOM      3  O2  UNL     1       0.941   1.485   0.308  0.00  0.00    +0.000 OA
ATOM      4  N3  UNL     1       0.494   0.474  -1.687  0.00  0.00    +0.000 N 
ATOM      5  C7  UNL     1       0.874   0.084  -3.035  0.00  0.00    +0.000 C 
ATOM      6  C8  UNL     1       1.521  -1.300  -3.040  0.00  0.00    +0.000 C 
ATOM      7  C9  UNL     1       2.985  -1.258  -2.585  0.00  0.00    +0.000 C 
ATOM      8  C10 UNL     1       3.259  -0.764  -1.148  0.00  0.00    +0.000 C 
ATOM      9  C13 UNL     1      -0.433   0.166  -3.827  0.00  0.00    +0.000 C 
ATOM     10  C14 UNL     1      -1.521  -0.069  -2.791  0.00  0.00    +0.000 C 
ATOM     11  C15 UNL     1      -0.952   0.547  -1.510  0.00  0.00    +0.000 C 
ATOM     12  H10 UNL     1       3.144   1.288  -1.884  0.00  0.00    +0.000 HD
ATOM     13  H11 UNL     1       1.576   0.820  -3.445  0.00  0.00    +0.000 HD
ATOM     14  H12 UNL     1       1.509  -1.700  -4.062  0.00  0.00    +0.000 HD
ATOM     15  H13 UNL     1       0.948  -2.000  -2.422  0.00  0.00    +0.000 HD
ATOM     16  H14 UNL     1       3.425  -2.251  -2.724  0.00  0.00    +0.000 HD
ATOM     17  H15 UNL     1       3.540  -0.613  -3.280  0.00  0.00    +0.000 HD
ATOM     18  H16 UNL     1       4.353  -0.810  -1.034  0.00  0.00    +0.000 HD
ATOM     19  H23 UNL     1      -0.485  -0.536  -4.664  0.00  0.00    +0.000 HD
ATOM     20  H24 UNL     1      -0.546   1.178  -4.236  0.00  0.00    +0.000 HD
ATOM     21  H25 UNL     1      -1.690  -1.147  -2.677  0.00  0.00    +0.000 HD
ATOM     22  H26 UNL     1      -2.475   0.384  -3.080  0.00  0.00    +0.000 HD
ATOM     23  H27 UNL     1      -1.227   1.603  -1.407  0.00  0.00    +0.000 HD
ENDROOT
BRANCH   1  26
ATOM     24  C4  UNL     1       3.995   2.648   0.090  0.00  0.00    +0.000 C 
ATOM     25  O1  UNL     1       4.037   3.293  -0.955  0.00  0.00    +0.000 OA
ATOM     26  N2  UNL     1       3.585   1.329   0.148  0.00  0.00    +0.000 N 
ATOM     27  H9  UNL     1       3.248   1.037   1.055  0.00  0.00    +0.000 HD
BRANCH  24  28
ATOM     28  C3  UNL     1       4.400   3.257   1.452  0.00  0.00    +0.000 C 
ATOM     29  H6  UNL     1       4.639   4.314   1.285  0.00  0.00    +0.000 HD
BRANCH  28  30
ATOM     30  C2  UNL     1       5.603   2.540   2.076  0.00  0.00    +0.000 C 
ATOM     31  H4  UNL     1       5.797   2.951   3.075  0.00  0.00    +0.000 HD
ATOM     32  H5  UNL     1       5.398   1.470   2.209  0.00  0.00    +0.000 HD
BRANCH  30  33
ATOM     33  C1  UNL     1       6.871   2.694   1.245  0.00  0.00    +0.000 C 
ATOM     34  H1  UNL     1       7.706   2.192   1.742  0.00  0.00    +0.000 HD
ATOM     35  H2  UNL     1       7.132   3.750   1.124  0.00  0.00    +0.000 HD
ATOM     36  H3  UNL     1       6.757   2.249   0.251  0.00  0.00    +0.000 HD
ENDBRANCH  30  33
ENDBRANCH  28  30
BRANCH  28  37
ATOM     37  N1  UNL     1       3.254   3.196   2.388  0.00  0.00    +0.000 NA
ATOM     38  H7  UNL     1       2.411   3.513   1.900  0.00  0.00    +0.000 HD
ATOM     39  H8  UNL     1       3.067   2.239   2.677  0.00  0.00    +0.000 HD
ENDBRANCH  28  37
ENDBRANCH  24  28
ENDBRANCH   1  26
BRANCH  11  40
ATOM     40  C16 UNL     1      -1.479  -0.271  -0.315  0.00  0.00    +0.000 C 
ATOM     41  O3  UNL     1      -0.929  -1.284   0.110  0.00  0.00    +0.000 OA
ATOM     42  N5  UNL     1      -2.682   0.195   0.173  0.00  0.00    +0.000 N 
ATOM     43  H28 UNL     1      -3.142   0.972  -0.277  0.00  0.00    +0.000 HD
BRANCH  42  44
ATOM     44  C17 UNL     1      -3.453  -0.543   1.161  0.00  0.00    +0.000 C 
ATOM     45  H29 UNL     1      -2.768  -1.195   1.720  0.00  0.00    +0.000 HD
BRANCH  44  46
ATOM     46  C18 UNL     1      -4.449  -1.417   0.401  0.00  0.00    +0.000 A 
ATOM     47  C19 UNL     1      -5.483  -0.854  -0.371  0.00  0.00    +0.000 A 
ATOM     48  C20 UNL     1      -6.370  -1.669  -1.076  0.00  0.00    +0.000 A 
ATOM     49  C21 UNL     1      -6.233  -3.055  -1.026  0.00  0.00    +0.000 A 
ATOM     50  C22 UNL     1      -5.208  -3.628  -0.273  0.00  0.00    +0.000 A 
ATOM     51  C23 UNL     1      -4.320  -2.815   0.434  0.00  0.00    +0.000 A 
ATOM     52  H30 UNL     1      -5.608   0.227  -0.418  0.00  0.00    +0.000 HD
ATOM     53  H31 UNL     1      -7.167  -1.222  -1.666  0.00  0.00    +0.000 HD
ATOM     54  H32 UNL     1      -6.921  -3.690  -1.578  0.00  0.00    +0.000 HD
ATOM     55  H33 UNL     1      -5.096  -4.709  -0.238  0.00  0.00    +0.000 HD
ATOM     56  H34 UNL     1      -3.519  -3.279   1.006  0.00  0.00    +0.000 HD
ENDBRANCH  44  46
BRANCH  44  57
ATOM     57  C24 UNL     1      -4.063   0.401   2.201  0.00  0.00    +0.000 A 
ATOM     58  C25 UNL     1      -5.278   0.111   2.848  0.00  0.00    +0.000 A 
ATOM     59  C26 UNL     1      -5.798   0.967   3.824  0.00  0.00    +0.000 A 
ATOM     60  C27 UNL     1      -5.103   2.115   4.190  0.00  0.00    +0.000 A 
ATOM     61  C28 UNL     1      -3.881   2.403   3.591  0.00  0.00    +0.000 A 
ATOM     62  C29 UNL     1      -3.361   1.550   2.614  0.00  0.00    +0.000 A 
ATOM     63  H35 UNL     1      -5.839  -0.789   2.606  0.00  0.00    +0.000 HD
ATOM     64  H36 UNL     1      -6.744   0.728   4.304  0.00  0.00    +0.000 HD
ATOM     65  H37 UNL     1      -5.506   2.777   4.952  0.00  0.00    +0.000 HD
ATOM     66  H38 UNL     1      -3.322   3.287   3.890  0.00  0.00    +0.000 HD
ATOM     67  H39 UNL     1      -2.387   1.786   2.186  0.00  0.00    +0.000 HD
ENDBRANCH  44  57
ENDBRANCH  42  44
ENDBRANCH  11  40
BRANCH   8  68
ATOM     68  C11 UNL     1       2.674  -1.654  -0.024  0.00  0.00    +0.000 C 
ATOM     69  H17 UNL     1       2.916  -1.192   0.941  0.00  0.00    +0.000 HD
ATOM     70  H18 UNL     1       1.583  -1.680  -0.077  0.00  0.00    +0.000 HD
BRANCH  68  71
ATOM     71  C12 UNL     1       3.210  -3.088   0.035  0.00  0.00    +0.000 C 
ATOM     72  H19 UNL     1       2.985  -3.507   1.023  0.00  0.00    +0.000 HD
ATOM     73  H20 UNL     1       4.299  -3.094  -0.081  0.00  0.00    +0.000 HD
BRANCH  71  74
ATOM     74  N4  UNL     1       2.603  -3.956  -0.969  0.00  0.00    +0.000 NA
ATOM     75  H21 UNL     1       1.588  -3.942  -0.851  0.00  0.00    +0.000 HD
ATOM     76  H22 UNL     1       2.891  -4.918  -0.798  0.00  0.00    +0.000 HD
ENDBRANCH  71  74
ENDBRANCH  68  71
ENDBRANCH   8  68
TORSDOF 12
