REMARK  Name = /home/ubuntu/ubp_medicine_study/real_molecular_docking/ligands_pdbqt/NOVEL_0079.pdb
REMARK  9 active torsions:
REMARK  status: ('A' for Active; 'I' for Inactive)
REMARK    1  A    between atoms: O1_1  and  C1_2
REMARK    2  A    between atoms: C1_2  and  C2_3
REMARK    3  A    between atoms: C3_5  and  N1_6
REMARK    4  A    between atoms: C6_10  and  N3_11
REMARK    5  A    between atoms: N3_11  and  C7_12
REMARK    6  A    between atoms: C7_12  and  C8_13
REMARK    7  A    between atoms: C8_13  and  C9_14
REMARK    8  A    between atoms: C14_23  and  O3_24
REMARK    9  A    between atoms: C15_25  and  O4_26
REMARK                            x       y       z     vdW  Elec       q    Type
REMARK                         _______ _______ _______ _____ _____    ______ ____
ROOT
ATOM      1  N1  UNL     1       1.634   0.472   0.846  0.00  0.00    +0.000 N 
ATOM      2  C4  UNL     1       0.975   1.430   0.128  0.00  0.00    +0.000 A 
ATOM      3  N2  UNL     1      -0.331   1.335   0.270  0.00  0.00    +0.000 NA
ATOM      4  C5  UNL     1      -0.524   0.280   1.141  0.00  0.00    +0.000 A 
ATOM      5  C6  UNL     1      -1.682  -0.312   1.685  0.00  0.00    +0.000 A 
ATOM      6  N6  UNL     1      -1.509  -1.375   2.520  0.00  0.00    +0.000 NA
ATOM      7  C12 UNL     1      -0.257  -1.802   2.787  0.00  0.00    +0.000 A 
ATOM      8  N7  UNL     1       0.912  -1.318   2.319  0.00  0.00    +0.000 NA
ATOM      9  C13 UNL     1       0.693  -0.272   1.506  0.00  0.00    +0.000 A 
ATOM     10  H6  UNL     1       1.484   2.171  -0.476  0.00  0.00    +0.000 HD
ATOM     11  H15 UNL     1      -0.186  -2.648   3.465  0.00  0.00    +0.000 HD
ENDROOT
BRANCH   1  14
ATOM     12  C2  UNL     1       4.659   0.740  -0.693  0.00  0.00    +0.000 C 
ATOM     13  O2  UNL     1       3.770   1.325   0.287  0.00  0.00    +0.000 OA
ATOM     14  C3  UNL     1       3.062   0.238   0.933  0.00  0.00    +0.000 C 
ATOM     15  C14 UNL     1       3.496  -1.072   0.257  0.00  0.00    +0.000 C 
ATOM     16  C15 UNL     1       4.024  -0.585  -1.082  0.00  0.00    +0.000 C 
ATOM     17  H4  UNL     1       5.633   0.599  -0.208  0.00  0.00    +0.000 HD
ATOM     18  H5  UNL     1       3.328   0.261   1.996  0.00  0.00    +0.000 HD
ATOM     19  H16 UNL     1       2.711  -1.825   0.140  0.00  0.00    +0.000 HD
ATOM     20  H18 UNL     1       3.193  -0.429  -1.779  0.00  0.00    +0.000 HD
BRANCH  12  21
ATOM     21  C1  UNL     1       4.818   1.698  -1.868  0.00  0.00    +0.000 C 
ATOM     22  H2  UNL     1       5.469   1.278  -2.641  0.00  0.00    +0.000 HD
ATOM     23  H3  UNL     1       3.849   1.942  -2.315  0.00  0.00    +0.000 HD
BRANCH  21  24
ATOM     24  O1  UNL     1       5.394   2.925  -1.416  0.00  0.00    +0.000 OA
ATOM     25  H1  UNL     1       4.893   3.185  -0.621  0.00  0.00    +0.000 HD
ENDBRANCH  21  24
ENDBRANCH  12  21
BRANCH  15  26
ATOM     26  O3  UNL     1       4.581  -1.701   0.970  0.00  0.00    +0.000 OA
ATOM     27  H17 UNL     1       4.201  -2.079   1.786  0.00  0.00    +0.000 HD
ENDBRANCH  15  26
BRANCH  16  28
ATOM     28  O4  UNL     1       4.949  -1.495  -1.656  0.00  0.00    +0.000 OA
ATOM     29  H19 UNL     1       5.415  -1.912  -0.901  0.00  0.00    +0.000 HD
ENDBRANCH  16  28
ENDBRANCH   1  14
BRANCH   5  30
ATOM     30  N3  UNL     1      -2.961   0.172   1.404  0.00  0.00    +0.000 N 
ATOM     31  H7  UNL     1      -2.948   0.739   0.547  0.00  0.00    +0.000 HD
BRANCH  30  32
ATOM     32  C7  UNL     1      -4.019  -0.834   1.401  0.00  0.00    +0.000 C 
ATOM     33  H8  UNL     1      -3.742  -1.683   0.762  0.00  0.00    +0.000 HD
ATOM     34  H9  UNL     1      -4.168  -1.208   2.421  0.00  0.00    +0.000 HD
BRANCH  32  35
ATOM     35  C8  UNL     1      -5.341  -0.229   0.914  0.00  0.00    +0.000 C 
ATOM     36  H10 UNL     1      -6.151  -0.934   1.138  0.00  0.00    +0.000 HD
ATOM     37  H11 UNL     1      -5.560   0.696   1.460  0.00  0.00    +0.000 HD
BRANCH  35  38
ATOM     38  C9  UNL     1      -5.343   0.061  -0.550  0.00  0.00    +0.000 A 
ATOM     39  C10 UNL     1      -6.205  -0.392  -1.527  0.00  0.00    +0.000 A 
ATOM     40  N4  UNL     1      -5.767   0.181  -2.689  0.00  0.00    +0.000 N 
ATOM     41  C11 UNL     1      -4.678   0.947  -2.386  0.00  0.00    +0.000 A 
ATOM     42  N5  UNL     1      -4.398   0.895  -1.105  0.00  0.00    +0.000 NA
ATOM     43  H12 UNL     1      -7.064  -1.047  -1.496  0.00  0.00    +0.000 HD
ATOM     44  H13 UNL     1      -6.172   0.068  -3.607  0.00  0.00    +0.000 HD
ATOM     45  H14 UNL     1      -4.137   1.514  -3.131  0.00  0.00    +0.000 HD
ENDBRANCH  35  38
ENDBRANCH  32  35
ENDBRANCH  30  32
ENDBRANCH   5  30
TORSDOF 9
