REMARK  Name = /home/ubuntu/ubp_medicine_study/real_molecular_docking/ligands_pdbqt/NOVEL_0048.pdb
REMARK  3 active torsions:
REMARK  status: ('A' for Active; 'I' for Inactive)
REMARK    1  A    between atoms: C1_1  and  C2_2
REMARK    2  A    between atoms: C2_2  and  C3_3
REMARK    3  A    between atoms: C8_11  and  C9_12
REMARK                            x       y       z     vdW  Elec       q    Type
REMARK                         _______ _______ _______ _____ _____    ______ ____
ROOT
ATOM      1  C2  UNL     1      -0.805   0.919  -1.144  0.00  0.00    +0.000 C 
ATOM      2  O1  UNL     1      -1.074   1.949  -0.171  0.00  0.00    +0.000 OA
ATOM      3  N2  UNL     1      -0.025   1.884   0.774  0.00  0.00    +0.000 NA
ATOM      4  C8  UNL     1       0.731   0.917   0.376  0.00  0.00    +0.000 C 
ATOM      5  O2  UNL     1       0.359   0.222  -0.714  0.00  0.00    +0.000 OA
ENDROOT
BRANCH   4   6
ATOM      6  C9  UNL     1       1.936   0.429   1.051  0.00  0.00    +0.000 A 
ATOM      7  C10 UNL     1       1.898   0.372   2.453  0.00  0.00    +0.000 A 
ATOM      8  C11 UNL     1       3.001  -0.095   3.170  0.00  0.00    +0.000 A 
ATOM      9  C12 UNL     1       4.149  -0.499   2.493  0.00  0.00    +0.000 A 
ATOM     10  C13 UNL     1       4.199  -0.426   1.099  0.00  0.00    +0.000 A 
ATOM     11  C14 UNL     1       3.097   0.042   0.373  0.00  0.00    +0.000 A 
ATOM     12 CL1  UNL     1       3.283   0.171  -1.341  0.00  0.00    +0.000 Cl
ATOM     13  H8  UNL     1       1.006   0.687   2.992  0.00  0.00    +0.000 HD
ATOM     14  H9  UNL     1       2.964  -0.141   4.256  0.00  0.00    +0.000 HD
ATOM     15  H10 UNL     1       5.010  -0.861   3.049  0.00  0.00    +0.000 HD
ATOM     16  H11 UNL     1       5.108  -0.727   0.583  0.00  0.00    +0.000 HD
ENDBRANCH   4   6
BRANCH   1  17
ATOM     17  C3  UNL     1      -1.982  -0.055  -1.227  0.00  0.00    +0.000 A 
ATOM     18  C4  UNL     1      -2.644  -0.454  -0.062  0.00  0.00    +0.000 A 
ATOM     19  C5  UNL     1      -3.694  -1.365  -0.149  0.00  0.00    +0.000 A 
ATOM     20  C6  UNL     1      -4.059  -1.867  -1.391  0.00  0.00    +0.000 A 
ATOM     21  C7  UNL     1      -3.354  -1.436  -2.500  0.00  0.00    +0.000 A 
ATOM     22  N1  UNL     1      -2.332  -0.553  -2.447  0.00  0.00    +0.000 NA
ATOM     23  H4  UNL     1      -2.349  -0.060   0.906  0.00  0.00    +0.000 HD
ATOM     24  H5  UNL     1      -4.221  -1.680   0.747  0.00  0.00    +0.000 HD
ATOM     25  H6  UNL     1      -4.871  -2.577  -1.493  0.00  0.00    +0.000 HD
ATOM     26  H7  UNL     1      -3.597  -1.801  -3.494  0.00  0.00    +0.000 HD
ENDBRANCH   1  17
BRANCH   1  27
ATOM     27  C1  UNL     1      -0.500   1.612  -2.472  0.00  0.00    +0.000 C 
ATOM     28  H1  UNL     1       0.323   2.326  -2.354  0.00  0.00    +0.000 HD
ATOM     29  H2  UNL     1      -1.366   2.175  -2.836  0.00  0.00    +0.000 HD
ATOM     30  H3  UNL     1      -0.192   0.895  -3.241  0.00  0.00    +0.000 HD
ENDBRANCH   1  27
TORSDOF 3
