REMARK  Name = /home/ubuntu/ubp_medicine_study/real_molecular_docking/ligands_pdbqt/NOVEL_0059.pdb
REMARK  15 active torsions:
REMARK  status: ('A' for Active; 'I' for Inactive)
REMARK    1  A    between atoms: N4_10  and  C6_11
REMARK    2  A    between atoms: C6_11  and  C7_12
REMARK    3  A    between atoms: C6_11  and  C10_20
REMARK    4  A    between atoms: C7_12  and  O2_13
REMARK    5  A    between atoms: O2_13  and  C8_14
REMARK    6  A    between atoms: C8_14  and  C9_15
REMARK    7  A    between atoms: C9_15  and  P1_16
REMARK    8  A    between atoms: P1_16  and  O4_18
REMARK    9  A    between atoms: P1_16  and  O5_19
REMARK   10  A    between atoms: C10_20  and  O6_21
REMARK   11  A    between atoms: O6_21  and  C11_22
REMARK   12  A    between atoms: C11_22  and  C12_23
REMARK   13  A    between atoms: C12_23  and  P2_24
REMARK   14  A    between atoms: P2_24  and  O8_26
REMARK   15  A    between atoms: P2_24  and  O9_27
REMARK                            x       y       z     vdW  Elec       q    Type
REMARK                         _______ _______ _______ _____ _____    ______ ____
ROOT
ATOM      1  C6  UNL     1      -0.031   1.106  -0.167  0.00  0.00    +0.000 C 
ATOM      2  H4  UNL     1      -0.209   1.160   0.915  0.00  0.00    +0.000 HD
ENDROOT
BRANCH   1  12
ATOM      3  O1  UNL     1       1.503   6.852  -0.796  0.00  0.00    +0.000 OA
ATOM      4  C1  UNL     1       1.173   5.860  -0.155  0.00  0.00    +0.000 A 
ATOM      5  N1  UNL     1       1.021   5.894   1.224  0.00  0.00    +0.000 N 
ATOM      6  C2  UNL     1       0.656   4.797   1.983  0.00  0.00    +0.000 A 
ATOM      7  N2  UNL     1       0.409   3.609   1.517  0.00  0.00    +0.000 NA
ATOM      8  C3  UNL     1       0.544   3.541   0.171  0.00  0.00    +0.000 A 
ATOM      9  C4  UNL     1       0.902   4.545  -0.703  0.00  0.00    +0.000 A 
ATOM     10  N3  UNL     1       0.941   4.094  -1.997  0.00  0.00    +0.000 NA
ATOM     11  C5  UNL     1       0.605   2.823  -1.912  0.00  0.00    +0.000 A 
ATOM     12  N4  UNL     1       0.352   2.440  -0.616  0.00  0.00    +0.000 N 
ATOM     13  H1  UNL     1       1.199   6.787   1.657  0.00  0.00    +0.000 HD
ATOM     14  H2  UNL     1       0.589   5.013   3.061  0.00  0.00    +0.000 HD
ATOM     15  H3  UNL     1       0.532   2.143  -2.751  0.00  0.00    +0.000 HD
ENDBRANCH   1  12
BRANCH   1  16
ATOM     16  C7  UNL     1      -1.349   0.666  -0.828  0.00  0.00    +0.000 C 
ATOM     17  H5  UNL     1      -1.176   0.370  -1.870  0.00  0.00    +0.000 HD
ATOM     18  H6  UNL     1      -2.064   1.499  -0.826  0.00  0.00    +0.000 HD
BRANCH  16  19
ATOM     19  O2  UNL     1      -1.935  -0.423  -0.115  0.00  0.00    +0.000 OA
BRANCH  19  20
ATOM     20  C8  UNL     1      -3.138  -0.883  -0.728  0.00  0.00    +0.000 C 
ATOM     21  H7  UNL     1      -2.929  -1.215  -1.752  0.00  0.00    +0.000 HD
ATOM     22  H8  UNL     1      -3.870  -0.068  -0.768  0.00  0.00    +0.000 HD
BRANCH  20  23
ATOM     23  C9  UNL     1      -3.678  -2.034   0.095  0.00  0.00    +0.000 C 
ATOM     24  H9  UNL     1      -2.914  -2.815   0.184  0.00  0.00    +0.000 HD
ATOM     25  H10 UNL     1      -3.870  -1.688   1.117  0.00  0.00    +0.000 HD
BRANCH  23  26
ATOM     26  P1  UNL     1      -5.165  -2.708  -0.593  0.00  0.00    +0.000 P 
ATOM     27  O3  UNL     1      -6.280  -1.753  -0.845  0.00  0.00    +0.000 OA
BRANCH  26  28
ATOM     28  O4  UNL     1      -5.553  -3.942   0.352  0.00  0.00    +0.000 OA
ATOM     29  H11 UNL     1      -4.825  -4.312   0.884  0.00  0.00    +0.000 HD
ENDBRANCH  26  28
BRANCH  26  30
ATOM     30  O5  UNL     1      -4.706  -3.497  -1.908  0.00  0.00    +0.000 OA
ATOM     31  H12 UNL     1      -5.483  -3.828  -2.400  0.00  0.00    +0.000 HD
ENDBRANCH  26  30
ENDBRANCH  23  26
ENDBRANCH  20  23
ENDBRANCH  19  20
ENDBRANCH  16  19
ENDBRANCH   1  16
BRANCH   1  32
ATOM     32  C10 UNL     1       1.125   0.117  -0.398  0.00  0.00    +0.000 C 
ATOM     33  H13 UNL     1       2.061   0.559  -0.036  0.00  0.00    +0.000 HD
ATOM     34  H14 UNL     1       1.242  -0.088  -1.469  0.00  0.00    +0.000 HD
BRANCH  32  35
ATOM     35  O6  UNL     1       0.894  -1.113   0.289  0.00  0.00    +0.000 OA
BRANCH  35  36
ATOM     36  C11 UNL     1       1.959  -2.054   0.141  0.00  0.00    +0.000 C 
ATOM     37  H15 UNL     1       1.524  -3.049   0.280  0.00  0.00    +0.000 HD
ATOM     38  H16 UNL     1       2.366  -2.025  -0.876  0.00  0.00    +0.000 HD
BRANCH  36  39
ATOM     39  C12 UNL     1       3.036  -1.828   1.186  0.00  0.00    +0.000 C 
ATOM     40  H17 UNL     1       2.582  -1.858   2.183  0.00  0.00    +0.000 HD
ATOM     41  H18 UNL     1       3.454  -0.821   1.083  0.00  0.00    +0.000 HD
BRANCH  39  42
ATOM     42  P2  UNL     1       4.357  -3.002   1.103  0.00  0.00    +0.000 P 
ATOM     43  O7  UNL     1       5.468  -2.880   2.090  0.00  0.00    +0.000 OA
BRANCH  42  44
ATOM     44  O8  UNL     1       4.901  -2.955  -0.403  0.00  0.00    +0.000 OA
ATOM     45  H19 UNL     1       5.756  -3.412  -0.511  0.00  0.00    +0.000 HD
ENDBRANCH  42  44
BRANCH  42  46
ATOM     46  O9  UNL     1       3.687  -4.455   1.139  0.00  0.00    +0.000 OA
ATOM     47  H20 UNL     1       4.335  -5.168   1.296  0.00  0.00    +0.000 HD
ENDBRANCH  42  46
ENDBRANCH  39  42
ENDBRANCH  36  39
ENDBRANCH  35  36
ENDBRANCH  32  35
ENDBRANCH   1  32
TORSDOF 15
