REMARK  Name = /home/ubuntu/ubp_medicine_study/real_molecular_docking/ligands_pdbqt/NOVEL_0093.pdb
REMARK  7 active torsions:
REMARK  status: ('A' for Active; 'I' for Inactive)
REMARK    1  A    between atoms: C1_1  and  O1_2
REMARK    2  A    between atoms: O1_2  and  C2_3
REMARK    3  A    between atoms: C5_6  and  C6_7
REMARK    4  A    between atoms: C6_7  and  C7_8
REMARK    5  A    between atoms: N1_10  and  C8_11
REMARK    6  A    between atoms: N2_13  and  C10_14
REMARK    7  A    between atoms: C12_16  and  O3_17
REMARK                            x       y       z     vdW  Elec       q    Type
REMARK                         _______ _______ _______ _____ _____    ______ ____
ROOT
ATOM      1  C7  UNL     1       0.423   1.894  -0.365  0.00  0.00    +0.000 C 
ATOM      2  O2  UNL     1      -0.408   2.650   0.136  0.00  0.00    +0.000 OA
ATOM      3  N1  UNL     1       0.222   0.566  -0.670  0.00  0.00    +0.000 N 
ATOM      4  H8  UNL     1       0.975   0.006  -1.049  0.00  0.00    +0.000 HD
ENDROOT
BRANCH   3   5
ATOM      5  C8  UNL     1      -0.928  -0.140  -0.443  0.00  0.00    +0.000 A 
ATOM      6  C9  UNL     1      -2.122   0.263   0.104  0.00  0.00    +0.000 A 
ATOM      7  N2  UNL     1      -2.905  -0.851   0.063  0.00  0.00    +0.000 N 
ATOM      8  C14 UNL     1      -2.163  -1.877  -0.443  0.00  0.00    +0.000 A 
ATOM      9  N3  UNL     1      -0.961  -1.466  -0.785  0.00  0.00    +0.000 NA
ATOM     10  H9  UNL     1      -2.458   1.210   0.501  0.00  0.00    +0.000 HD
ATOM     11  H17 UNL     1      -2.538  -2.887  -0.540  0.00  0.00    +0.000 HD
BRANCH   7  12
ATOM     12  C10 UNL     1      -4.267  -0.969   0.600  0.00  0.00    +0.000 C 
ATOM     13  C11 UNL     1      -5.166   0.268   0.343  0.00  0.00    +0.000 C 
ATOM     14  C12 UNL     1      -6.320  -0.716   0.048  0.00  0.00    +0.000 C 
ATOM     15  C13 UNL     1      -5.236  -1.756  -0.317  0.00  0.00    +0.000 C 
ATOM     16  H10 UNL     1      -4.275  -1.308   1.644  0.00  0.00    +0.000 HD
ATOM     17  H11 UNL     1      -4.900   0.885  -0.523  0.00  0.00    +0.000 HD
ATOM     18  H12 UNL     1      -5.312   0.922   1.208  0.00  0.00    +0.000 HD
ATOM     19  H13 UNL     1      -6.944  -0.422  -0.802  0.00  0.00    +0.000 HD
ATOM     20  H15 UNL     1      -4.988  -1.760  -1.385  0.00  0.00    +0.000 HD
ATOM     21  H16 UNL     1      -5.441  -2.783  -0.001  0.00  0.00    +0.000 HD
BRANCH  14  22
ATOM     22  O3  UNL     1      -7.156  -1.060   1.168  0.00  0.00    +0.000 OA
ATOM     23  H14 UNL     1      -7.700  -0.270   1.331  0.00  0.00    +0.000 HD
ENDBRANCH  14  22
ENDBRANCH   7  12
ENDBRANCH   3   5
BRANCH   1  24
ATOM     24  C6  UNL     1       1.793   2.411  -0.776  0.00  0.00    +0.000 C 
ATOM     25  H6  UNL     1       1.908   3.436  -0.402  0.00  0.00    +0.000 HD
ATOM     26  H7  UNL     1       1.810   2.473  -1.871  0.00  0.00    +0.000 HD
BRANCH  24  30
ATOM     27  C2  UNL     1       5.096   0.032   0.691  0.00  0.00    +0.000 A 
ATOM     28  C3  UNL     1       4.239   0.683   1.580  0.00  0.00    +0.000 A 
ATOM     29  C4  UNL     1       3.175   1.455   1.111  0.00  0.00    +0.000 A 
ATOM     30  C5  UNL     1       2.949   1.584  -0.265  0.00  0.00    +0.000 A 
ATOM     31  C15 UNL     1       3.814   0.935  -1.156  0.00  0.00    +0.000 A 
ATOM     32  C16 UNL     1       4.880   0.163  -0.680  0.00  0.00    +0.000 A 
ATOM     33  H4  UNL     1       4.402   0.588   2.651  0.00  0.00    +0.000 HD
ATOM     34  H5  UNL     1       2.524   1.952   1.829  0.00  0.00    +0.000 HD
ATOM     35  H18 UNL     1       3.670   1.026  -2.231  0.00  0.00    +0.000 HD
ATOM     36  H19 UNL     1       5.523  -0.321  -1.408  0.00  0.00    +0.000 HD
BRANCH  27  37
ATOM     37  O1  UNL     1       6.095  -0.689   1.284  0.00  0.00    +0.000 OA
BRANCH  37  38
ATOM     38  C1  UNL     1       6.985  -1.386   0.422  0.00  0.00    +0.000 C 
ATOM     39  H1  UNL     1       7.711  -1.915   1.047  0.00  0.00    +0.000 HD
ATOM     40  H2  UNL     1       7.540  -0.691  -0.217  0.00  0.00    +0.000 HD
ATOM     41  H3  UNL     1       6.452  -2.134  -0.175  0.00  0.00    +0.000 HD
ENDBRANCH  37  38
ENDBRANCH  27  37
ENDBRANCH  24  30
ENDBRANCH   1  24
TORSDOF 7
