REMARK  Name = /home/ubuntu/ubp_medicine_study/real_molecular_docking/ligands_pdbqt/NOVEL_0043.pdb
REMARK  2 active torsions:
REMARK  status: ('A' for Active; 'I' for Inactive)
REMARK    1  A    between atoms: C5_6  and  N1_7
REMARK    2  A    between atoms: C7_10  and  C8_11
REMARK                            x       y       z     vdW  Elec       q    Type
REMARK                         _______ _______ _______ _____ _____    ______ ____
ROOT
ATOM      1  N1  UNL     1      -1.402   0.875  -0.400  0.00  0.00    +0.000 N 
ATOM      2  C6  UNL     1      -0.318   0.340   0.210  0.00  0.00    +0.000 A 
ATOM      3  N2  UNL     1       0.865   0.375  -0.367  0.00  0.00    +0.000 NA
ATOM      4  C7  UNL     1       1.842  -0.190   0.441  0.00  0.00    +0.000 A 
ATOM      5  C13 UNL     1       1.384  -0.612   1.672  0.00  0.00    +0.000 A 
ATOM      6  S1  UNL     1      -0.293  -0.303   1.811  0.00  0.00    +0.000 S 
ATOM      7  H4  UNL     1      -1.185   1.371  -1.258  0.00  0.00    +0.000 HD
ATOM      8  H9  UNL     1       1.923  -1.060   2.493  0.00  0.00    +0.000 HD
ENDROOT
BRANCH   1  14
ATOM      9 CL1  UNL     1      -5.209  -2.344   1.014  0.00  0.00    +0.000 Cl
ATOM     10  C1  UNL     1      -4.634  -0.857   0.363  0.00  0.00    +0.000 A 
ATOM     11  C2  UNL     1      -5.546   0.111  -0.047  0.00  0.00    +0.000 A 
ATOM     12  C3  UNL     1      -5.078   1.308  -0.579  0.00  0.00    +0.000 A 
ATOM     13  C4  UNL     1      -3.703   1.527  -0.694  0.00  0.00    +0.000 A 
ATOM     14  C5  UNL     1      -2.769   0.558  -0.287  0.00  0.00    +0.000 A 
ATOM     15  C14 UNL     1      -3.259  -0.638   0.249  0.00  0.00    +0.000 A 
ATOM     16  H1  UNL     1      -6.615  -0.062   0.044  0.00  0.00    +0.000 HD
ATOM     17  H2  UNL     1      -5.780   2.075  -0.898  0.00  0.00    +0.000 HD
ATOM     18  H3  UNL     1      -3.359   2.478  -1.096  0.00  0.00    +0.000 HD
ATOM     19  H10 UNL     1      -2.583  -1.431   0.551  0.00  0.00    +0.000 HD
ENDBRANCH   1  14
BRANCH   4  20
ATOM     20  C8  UNL     1       3.228  -0.282  -0.015  0.00  0.00    +0.000 A 
ATOM     21  C9  UNL     1       3.623   0.431  -1.150  0.00  0.00    +0.000 A 
ATOM     22  C10 UNL     1       4.938   0.338  -1.576  0.00  0.00    +0.000 A 
ATOM     23  N3  UNL     1       5.874  -0.411  -0.957  0.00  0.00    +0.000 NA
ATOM     24  C11 UNL     1       5.474  -1.098   0.132  0.00  0.00    +0.000 A 
ATOM     25  C12 UNL     1       4.182  -1.069   0.636  0.00  0.00    +0.000 A 
ATOM     26  H5  UNL     1       2.923   1.053  -1.698  0.00  0.00    +0.000 HD
ATOM     27  H6  UNL     1       5.281   0.879  -2.453  0.00  0.00    +0.000 HD
ATOM     28  H7  UNL     1       6.246  -1.698   0.607  0.00  0.00    +0.000 HD
ATOM     29  H8  UNL     1       3.949  -1.663   1.511  0.00  0.00    +0.000 HD
ENDBRANCH   4  20
TORSDOF 2
