REMARK  Name = /home/ubuntu/ubp_medicine_study/real_molecular_docking/ligands_pdbqt/NOVEL_0036.pdb
REMARK  9 active torsions:
REMARK  status: ('A' for Active; 'I' for Inactive)
REMARK    1  A    between atoms: C1_1  and  O1_2
REMARK    2  A    between atoms: O1_2  and  C2_3
REMARK    3  A    between atoms: C5_6  and  C6_7
REMARK    4  A    between atoms: C7_9  and  C8_10
REMARK    5  A    between atoms: C11_13  and  O2_14
REMARK    6  A    between atoms: O2_14  and  C12_15
REMARK    7  A    between atoms: N2_24  and  O3_25
REMARK    8  A    between atoms: O3_25  and  C21_26
REMARK    9  A    between atoms: C21_26  and  C22_27
REMARK                            x       y       z     vdW  Elec       q    Type
REMARK                         _______ _______ _______ _____ _____    ______ ____
ROOT
ATOM      1  C6  UNL     1      -1.470   1.369  -1.206  0.00  0.00    +0.000 C 
ATOM      2  N1  UNL     1      -1.667  -0.010  -0.742  0.00  0.00    +0.000 NA
ATOM      3  C7  UNL     1      -1.452  -1.026  -1.782  0.00  0.00    +0.000 C 
ATOM      4  C15 UNL     1      -0.118  -0.861  -2.558  0.00  0.00    +0.000 C 
ATOM      5  C16 UNL     1      -0.315  -0.486  -4.037  0.00  0.00    +0.000 C 
ATOM      6  C17 UNL     1      -0.962   0.889  -4.241  0.00  0.00    +0.000 C 
ATOM      7  C18 UNL     1      -0.288   1.981  -3.401  0.00  0.00    +0.000 C 
ATOM      8  C19 UNL     1      -0.111   1.593  -1.920  0.00  0.00    +0.000 C 
ATOM      9  C20 UNL     1       0.647   0.280  -1.929  0.00  0.00    +0.000 C 
ATOM     10  N2  UNL     1       1.854   0.069  -1.498  0.00  0.00    +0.000 NA
ATOM     11  H6  UNL     1      -2.293   1.592  -1.895  0.00  0.00    +0.000 HD
ATOM     12  H7  UNL     1      -2.599  -0.114  -0.340  0.00  0.00    +0.000 HD
ATOM     13  H8  UNL     1      -2.290  -0.955  -2.486  0.00  0.00    +0.000 HD
ATOM     14  H16 UNL     1       0.496  -1.769  -2.513  0.00  0.00    +0.000 HD
ATOM     15  H17 UNL     1      -0.915  -1.252  -4.542  0.00  0.00    +0.000 HD
ATOM     16  H18 UNL     1       0.664  -0.480  -4.532  0.00  0.00    +0.000 HD
ATOM     17  H19 UNL     1      -2.028   0.835  -3.998  0.00  0.00    +0.000 HD
ATOM     18  H20 UNL     1      -0.908   1.162  -5.301  0.00  0.00    +0.000 HD
ATOM     19  H21 UNL     1       0.700   2.187  -3.833  0.00  0.00    +0.000 HD
ATOM     20  H22 UNL     1      -0.865   2.910  -3.479  0.00  0.00    +0.000 HD
ATOM     21  H23 UNL     1       0.472   2.379  -1.432  0.00  0.00    +0.000 HD
ENDROOT
BRANCH   1  25
ATOM     22  C2  UNL     1      -1.815   4.190   2.083  0.00  0.00    +0.000 A 
ATOM     23  C3  UNL     1      -2.484   4.414   0.878  0.00  0.00    +0.000 A 
ATOM     24  C4  UNL     1      -2.384   3.502  -0.177  0.00  0.00    +0.000 A 
ATOM     25  C5  UNL     1      -1.612   2.340  -0.041  0.00  0.00    +0.000 A 
ATOM     26  C28 UNL     1      -0.945   2.124   1.175  0.00  0.00    +0.000 A 
ATOM     27  C29 UNL     1      -1.046   3.038   2.229  0.00  0.00    +0.000 A 
ATOM     28  H4  UNL     1      -3.085   5.311   0.758  0.00  0.00    +0.000 HD
ATOM     29  H5  UNL     1      -2.910   3.714  -1.104  0.00  0.00    +0.000 HD
ATOM     30  H31 UNL     1      -0.336   1.233   1.305  0.00  0.00    +0.000 HD
ATOM     31  H32 UNL     1      -0.506   2.818   3.143  0.00  0.00    +0.000 HD
BRANCH  22  32
ATOM     32  O1  UNL     1      -1.991   5.166   3.025  0.00  0.00    +0.000 OA
BRANCH  32  33
ATOM     33  C1  UNL     1      -1.296   5.000   4.255  0.00  0.00    +0.000 C 
ATOM     34  H1  UNL     1      -1.508   5.874   4.877  0.00  0.00    +0.000 HD
ATOM     35  H2  UNL     1      -0.213   4.961   4.096  0.00  0.00    +0.000 HD
ATOM     36  H3  UNL     1      -1.650   4.113   4.791  0.00  0.00    +0.000 HD
ENDBRANCH  32  33
ENDBRANCH  22  32
ENDBRANCH   1  25
BRANCH   3  37
ATOM     37  C8  UNL     1      -1.521  -2.408  -1.145  0.00  0.00    +0.000 A 
ATOM     38  C9  UNL     1      -2.427  -3.366  -1.618  0.00  0.00    +0.000 A 
ATOM     39  C10 UNL     1      -2.477  -4.637  -1.039  0.00  0.00    +0.000 A 
ATOM     40  C11 UNL     1      -1.630  -4.977   0.018  0.00  0.00    +0.000 A 
ATOM     41  C13 UNL     1      -0.724  -4.030   0.494  0.00  0.00    +0.000 A 
ATOM     42  C14 UNL     1      -0.670  -2.757  -0.083  0.00  0.00    +0.000 A 
ATOM     43  H9  UNL     1      -3.098  -3.138  -2.443  0.00  0.00    +0.000 HD
ATOM     44  H10 UNL     1      -3.186  -5.372  -1.414  0.00  0.00    +0.000 HD
ATOM     45  H14 UNL     1      -0.044  -4.245   1.311  0.00  0.00    +0.000 HD
ATOM     46  H15 UNL     1       0.046  -2.033   0.300  0.00  0.00    +0.000 HD
BRANCH  40  47
ATOM     47  O2  UNL     1      -1.784  -6.251   0.489  0.00  0.00    +0.000 OA
BRANCH  47  48
ATOM     48  C12 UNL     1      -0.959  -6.636   1.581  0.00  0.00    +0.000 C 
ATOM     49  H11 UNL     1      -1.155  -6.016   2.462  0.00  0.00    +0.000 HD
ATOM     50  H12 UNL     1       0.101  -6.610   1.305  0.00  0.00    +0.000 HD
ATOM     51  H13 UNL     1      -1.208  -7.670   1.839  0.00  0.00    +0.000 HD
ENDBRANCH  47  48
ENDBRANCH  40  47
ENDBRANCH   3  37
BRANCH  10  52
ATOM     52  O3  UNL     1       2.404   1.219  -0.912  0.00  0.00    +0.000 OA
BRANCH  52  53
ATOM     53  C21 UNL     1       3.733   0.936  -0.455  0.00  0.00    +0.000 C 
ATOM     54  H24 UNL     1       4.232   0.246  -1.146  0.00  0.00    +0.000 HD
ATOM     55  H25 UNL     1       4.271   1.891  -0.487  0.00  0.00    +0.000 HD
BRANCH  53  56
ATOM     56  C22 UNL     1       3.805   0.399   0.960  0.00  0.00    +0.000 A 
ATOM     57  C23 UNL     1       2.671  -0.024   1.667  0.00  0.00    +0.000 A 
ATOM     58  C24 UNL     1       2.781  -0.527   2.965  0.00  0.00    +0.000 A 
ATOM     59  C25 UNL     1       4.031  -0.621   3.572  0.00  0.00    +0.000 A 
ATOM     60  C26 UNL     1       5.170  -0.214   2.881  0.00  0.00    +0.000 A 
ATOM     61  C27 UNL     1       5.058   0.293   1.584  0.00  0.00    +0.000 A 
ATOM     62  H26 UNL     1       1.690   0.023   1.203  0.00  0.00    +0.000 HD
ATOM     63  H27 UNL     1       1.890  -0.849   3.495  0.00  0.00    +0.000 HD
ATOM     64  H28 UNL     1       4.122  -1.021   4.579  0.00  0.00    +0.000 HD
ATOM     65  H29 UNL     1       6.147  -0.294   3.350  0.00  0.00    +0.000 HD
ATOM     66  H30 UNL     1       5.960   0.597   1.060  0.00  0.00    +0.000 HD
ENDBRANCH  53  56
ENDBRANCH  52  53
ENDBRANCH  10  52
TORSDOF 9
