REMARK  Name = /home/ubuntu/ubp_medicine_study/real_molecular_docking/ligands_pdbqt/NOVEL_0010.pdb
REMARK  17 active torsions:
REMARK  status: ('A' for Active; 'I' for Inactive)
REMARK    1  A    between atoms: C1_1  and  C2_2
REMARK    2  A    between atoms: C2_2  and  C3_3
REMARK    3  A    between atoms: C3_3  and  C4_4
REMARK    4  A    between atoms: C4_4  and  C5_5
REMARK    5  A    between atoms: C4_4  and  C6_6
REMARK    6  A    between atoms: C6_6  and  O1_7
REMARK    7  A    between atoms: C6_6  and  C16_18
REMARK    8  A    between atoms: O1_7  and  C7_8
REMARK    9  A    between atoms: C7_8  and  C8_10
REMARK   10  A    between atoms: C9_11  and  C10_12
REMARK   11  A    between atoms: C16_18  and  C17_19
REMARK   12  A    between atoms: C16_18  and  C18_20
REMARK   13  A    between atoms: C18_20  and  O3_21
REMARK   14  A    between atoms: C18_20  and  C19_22
REMARK   15  A    between atoms: C19_22  and  C20_23
REMARK   16  A    between atoms: C21_24  and  C22_25
REMARK   17  A    between atoms: C23_26  and  C24_27
REMARK                            x       y       z     vdW  Elec       q    Type
REMARK                         _______ _______ _______ _____ _____    ______ ____
ROOT
ATOM      1  C6  UNL     1      -0.232  -1.636  -0.747  0.00  0.00    +0.000 C 
ATOM      2  H12 UNL     1       0.074  -1.886   0.274  0.00  0.00    +0.000 HD
ENDROOT
BRANCH   1   3
ATOM      3  C4  UNL     1      -0.808  -2.917  -1.437  0.00  0.00    +0.000 C 
ATOM      4  H8  UNL     1      -0.535  -2.872  -2.500  0.00  0.00    +0.000 HD
BRANCH   3   5
ATOM      5  C5  UNL     1      -2.344  -2.998  -1.425  0.00  0.00    +0.000 C 
ATOM      6  H9  UNL     1      -2.785  -2.185  -2.013  0.00  0.00    +0.000 HD
ATOM      7  H10 UNL     1      -2.685  -3.938  -1.873  0.00  0.00    +0.000 HD
ATOM      8  H11 UNL     1      -2.748  -2.940  -0.410  0.00  0.00    +0.000 HD
ENDBRANCH   3   5
BRANCH   3   9
ATOM      9  C3  UNL     1      -0.203  -4.224  -0.862  0.00  0.00    +0.000 C 
ATOM     10  H6  UNL     1      -0.444  -5.047  -1.548  0.00  0.00    +0.000 HD
ATOM     11  H7  UNL     1       0.889  -4.159  -0.847  0.00  0.00    +0.000 HD
BRANCH   9  12
ATOM     12  C2  UNL     1      -0.692  -4.607   0.540  0.00  0.00    +0.000 C 
ATOM     13  H4  UNL     1      -0.559  -3.777   1.240  0.00  0.00    +0.000 HD
ATOM     14  H5  UNL     1      -1.761  -4.844   0.515  0.00  0.00    +0.000 HD
BRANCH  12  15
ATOM     15  C1  UNL     1       0.054  -5.821   1.075  0.00  0.00    +0.000 C 
ATOM     16  H1  UNL     1       1.126  -5.616   1.158  0.00  0.00    +0.000 HD
ATOM     17  H2  UNL     1      -0.320  -6.088   2.068  0.00  0.00    +0.000 HD
ATOM     18  H3  UNL     1      -0.080  -6.685   0.417  0.00  0.00    +0.000 HD
ENDBRANCH  12  15
ENDBRANCH   9  12
ENDBRANCH   3   9
ENDBRANCH   1   3
BRANCH   1  19
ATOM     19  C16 UNL     1       1.013  -0.989  -1.461  0.00  0.00    +0.000 C 
ATOM     20  H20 UNL     1       0.639  -0.496  -2.370  0.00  0.00    +0.000 HD
BRANCH  19  21
ATOM     21  C17 UNL     1       2.069  -2.018  -1.879  0.00  0.00    +0.000 C 
ATOM     22  H21 UNL     1       1.652  -2.800  -2.518  0.00  0.00    +0.000 HD
ATOM     23  H22 UNL     1       2.861  -1.560  -2.479  0.00  0.00    +0.000 HD
ATOM     24  H23 UNL     1       2.530  -2.488  -1.004  0.00  0.00    +0.000 HD
ENDBRANCH  19  21
BRANCH  19  25
ATOM     25  C18 UNL     1       1.644   0.124  -0.557  0.00  0.00    +0.000 C 
ATOM     26  H24 UNL     1       1.854  -0.303   0.432  0.00  0.00    +0.000 HD
BRANCH  25  27
ATOM     27  C19 UNL     1       2.929   0.763  -1.127  0.00  0.00    +0.000 C 
ATOM     28  H26 UNL     1       2.692   1.286  -2.063  0.00  0.00    +0.000 HD
ATOM     29  H27 UNL     1       3.684   0.003  -1.353  0.00  0.00    +0.000 HD
BRANCH  27  30
ATOM     30  C20 UNL     1       3.574   1.714  -0.149  0.00  0.00    +0.000 C 
ATOM     31  C21 UNL     1       3.723   3.029  -0.370  0.00  0.00    +0.000 C 
ATOM     32  H28 UNL     1       3.961   1.270   0.765  0.00  0.00    +0.000 HD
ATOM     33  H29 UNL     1       3.322   3.481  -1.276  0.00  0.00    +0.000 HD
BRANCH  31  34
ATOM     34  C22 UNL     1       4.342   3.938   0.565  0.00  0.00    +0.000 C 
ATOM     35  C23 UNL     1       5.576   3.878   1.091  0.00  0.00    +0.000 C 
ATOM     36  H30 UNL     1       3.712   4.783   0.842  0.00  0.00    +0.000 HD
ATOM     37  H31 UNL     1       5.877   4.651   1.789  0.00  0.00    +0.000 HD
BRANCH  35  38
ATOM     38  C24 UNL     1       6.619   2.876   0.762  0.00  0.00    +0.000 C 
ATOM     39  N1  UNL     1       7.566   2.749   1.731  0.00  0.00    +0.000 N 
ATOM     40  O4  UNL     1       6.670   2.222  -0.267  0.00  0.00    +0.000 OA
ATOM     41  H32 UNL     1       7.530   3.220   2.622  0.00  0.00    +0.000 HD
ATOM     42  H33 UNL     1       8.295   2.064   1.572  0.00  0.00    +0.000 HD
ENDBRANCH  35  38
ENDBRANCH  31  34
ENDBRANCH  27  30
ENDBRANCH  25  27
BRANCH  25  43
ATOM     43  O3  UNL     1       0.684   1.174  -0.374  0.00  0.00    +0.000 OA
ATOM     44  H25 UNL     1       1.077   1.820   0.238  0.00  0.00    +0.000 HD
ENDBRANCH  25  43
ENDBRANCH  19  25
ENDBRANCH   1  19
BRANCH   1  45
ATOM     45  O1  UNL     1      -1.274  -0.632  -0.733  0.00  0.00    +0.000 OA
BRANCH  45  46
ATOM     46  C7  UNL     1      -1.812  -0.316   0.470  0.00  0.00    +0.000 C 
ATOM     47  O2  UNL     1      -1.551  -0.820   1.551  0.00  0.00    +0.000 OA
BRANCH  46  48
ATOM     48  C8  UNL     1      -2.827   0.733   0.242  0.00  0.00    +0.000 C 
ATOM     49  C9  UNL     1      -3.639   1.111   1.241  0.00  0.00    +0.000 C 
ATOM     50  H13 UNL     1      -2.865   1.166  -0.750  0.00  0.00    +0.000 HD
ATOM     51  H14 UNL     1      -3.537   0.660   2.227  0.00  0.00    +0.000 HD
BRANCH  49  52
ATOM     52  C10 UNL     1      -4.679   2.139   1.109  0.00  0.00    +0.000 A 
ATOM     53  C11 UNL     1      -5.436   2.295  -0.060  0.00  0.00    +0.000 A 
ATOM     54  C12 UNL     1      -6.439   3.266  -0.134  0.00  0.00    +0.000 A 
ATOM     55  C13 UNL     1      -6.703   4.083   0.963  0.00  0.00    +0.000 A 
ATOM     56  C14 UNL     1      -5.969   3.926   2.136  0.00  0.00    +0.000 A 
ATOM     57  C15 UNL     1      -4.966   2.956   2.210  0.00  0.00    +0.000 A 
ATOM     58  H15 UNL     1      -5.265   1.657  -0.923  0.00  0.00    +0.000 HD
ATOM     59  H16 UNL     1      -7.017   3.379  -1.048  0.00  0.00    +0.000 HD
ATOM     60  H17 UNL     1      -7.484   4.837   0.905  0.00  0.00    +0.000 HD
ATOM     61  H18 UNL     1      -6.175   4.559   2.995  0.00  0.00    +0.000 HD
ATOM     62  H19 UNL     1      -4.406   2.848   3.137  0.00  0.00    +0.000 HD
ENDBRANCH  49  52
ENDBRANCH  46  48
ENDBRANCH  45  46
ENDBRANCH   1  45
TORSDOF 17
