REMARK  Name = /home/ubuntu/ubp_medicine_study/real_molecular_docking/ligands_pdbqt/NOVEL_0099.pdb
REMARK  13 active torsions:
REMARK  status: ('A' for Active; 'I' for Inactive)
REMARK    1  A    between atoms: C1_1  and  O1_2
REMARK    2  A    between atoms: O1_2  and  C2_3
REMARK    3  A    between atoms: C8_9  and  C9_10
REMARK    4  A    between atoms: C8_9  and  C10_11
REMARK    5  A    between atoms: C10_11  and  C11_12
REMARK    6  A    between atoms: C11_12  and  C12_13
REMARK    7  A    between atoms: C12_13  and  N1_14
REMARK    8  A    between atoms: N1_14  and  C13_15
REMARK    9  A    between atoms: N1_14  and  C14_16
REMARK   10  A    between atoms: N2_19  and  C16_20
REMARK   11  A    between atoms: C17_22  and  O4_23
REMARK   12  A    between atoms: C17_22  and  C18_24
REMARK   13  A    between atoms: C18_24  and  O6_26
REMARK                            x       y       z     vdW  Elec       q    Type
REMARK                         _______ _______ _______ _____ _____    ______ ____
ROOT
ATOM      1  C2  UNL     1       3.674   0.864   0.213  0.00  0.00    +0.000 A 
ATOM      2  C3  UNL     1       4.303  -0.151  -0.530  0.00  0.00    +0.000 A 
ATOM      3  C4  UNL     1       3.595  -1.291  -0.930  0.00  0.00    +0.000 A 
ATOM      4  C5  UNL     1       2.262  -1.388  -0.577  0.00  0.00    +0.000 A 
ATOM      5  C6  UNL     1       1.626  -0.389   0.155  0.00  0.00    +0.000 A 
ATOM      6  C7  UNL     1       2.323   0.742   0.558  0.00  0.00    +0.000 A 
ATOM      7  C8  UNL     1       0.172  -0.764   0.389  0.00  0.00    +0.000 C 
ATOM      8  C15 UNL     1       0.106  -2.161  -0.289  0.00  0.00    +0.000 C 
ATOM      9  O2  UNL     1      -0.866  -2.900  -0.322  0.00  0.00    +0.000 OA
ATOM     10  N2  UNL     1       1.361  -2.419  -0.846  0.00  0.00    +0.000 N 
ATOM     11  H4  UNL     1       5.349  -0.081  -0.811  0.00  0.00    +0.000 HD
ATOM     12  H5  UNL     1       4.091  -2.069  -1.499  0.00  0.00    +0.000 HD
ATOM     13  H6  UNL     1       1.836   1.524   1.132  0.00  0.00    +0.000 HD
ENDROOT
BRANCH   7  14
ATOM     14  C9  UNL     1      -0.114  -0.906   1.885  0.00  0.00    +0.000 C 
ATOM     15  H7  UNL     1      -1.098  -1.351   2.067  0.00  0.00    +0.000 HD
ATOM     16  H8  UNL     1       0.620  -1.560   2.371  0.00  0.00    +0.000 HD
ATOM     17  H9  UNL     1      -0.078   0.065   2.392  0.00  0.00    +0.000 HD
ENDBRANCH   7  14
BRANCH  10  18
ATOM     18  C16 UNL     1       1.701  -3.624  -1.554  0.00  0.00    +0.000 C 
ATOM     19  H22 UNL     1       2.068  -3.368  -2.553  0.00  0.00    +0.000 HD
ATOM     20  H23 UNL     1       2.476  -4.162  -1.000  0.00  0.00    +0.000 HD
ATOM     21  H24 UNL     1       0.826  -4.272  -1.654  0.00  0.00    +0.000 HD
ENDBRANCH  10  18
BRANCH   7  22
ATOM     22  C10 UNL     1      -0.749   0.240  -0.340  0.00  0.00    +0.000 C 
ATOM     23  H10 UNL     1      -0.571   0.173  -1.423  0.00  0.00    +0.000 HD
ATOM     24  H11 UNL     1      -0.475   1.264  -0.051  0.00  0.00    +0.000 HD
BRANCH  22  25
ATOM     25  C11 UNL     1      -2.252   0.066  -0.077  0.00  0.00    +0.000 C 
ATOM     26  H12 UNL     1      -2.446   0.206   0.990  0.00  0.00    +0.000 HD
ATOM     27  H13 UNL     1      -2.568  -0.948  -0.343  0.00  0.00    +0.000 HD
BRANCH  25  28
ATOM     28  C12 UNL     1      -3.068   1.082  -0.892  0.00  0.00    +0.000 C 
ATOM     29  H14 UNL     1      -2.790   0.955  -1.947  0.00  0.00    +0.000 HD
ATOM     30  H15 UNL     1      -2.781   2.104  -0.610  0.00  0.00    +0.000 HD
BRANCH  28  31
ATOM     31  N1  UNL     1      -4.523   0.897  -0.763  0.00  0.00    +0.000 NA
BRANCH  31  32
ATOM     32  C13 UNL     1      -5.223   1.732  -1.743  0.00  0.00    +0.000 C 
ATOM     33  H16 UNL     1      -5.030   2.800  -1.589  0.00  0.00    +0.000 HD
ATOM     34  H17 UNL     1      -4.919   1.469  -2.762  0.00  0.00    +0.000 HD
ATOM     35  H18 UNL     1      -6.305   1.565  -1.690  0.00  0.00    +0.000 HD
ENDBRANCH  31  32
BRANCH  31  36
ATOM     36  C14 UNL     1      -5.006   1.207   0.584  0.00  0.00    +0.000 C 
ATOM     37  H19 UNL     1      -6.096   1.099   0.636  0.00  0.00    +0.000 HD
ATOM     38  H20 UNL     1      -4.750   2.228   0.889  0.00  0.00    +0.000 HD
ATOM     39  H21 UNL     1      -4.601   0.509   1.323  0.00  0.00    +0.000 HD
ENDBRANCH  31  36
ENDBRANCH  28  31
ENDBRANCH  25  28
ENDBRANCH  22  25
ENDBRANCH   7  22
BRANCH   1  40
ATOM     40  O1  UNL     1       4.267   2.015   0.656  0.00  0.00    +0.000 OA
BRANCH  40  41
ATOM     41  C1  UNL     1       5.642   2.195   0.342  0.00  0.00    +0.000 C 
ATOM     42  H1  UNL     1       5.797   2.243  -0.741  0.00  0.00    +0.000 HD
ATOM     43  H2  UNL     1       5.960   3.152   0.767  0.00  0.00    +0.000 HD
ATOM     44  H3  UNL     1       6.257   1.409   0.795  0.00  0.00    +0.000 HD
ENDBRANCH  40  41
ENDBRANCH   1  40
TORSDOF 10
REMARK  Name = /home/ubuntu/ubp_medicine_study/real_molecular_docking/ligands_pdbqt/NOVEL_0099.pdb
REMARK  13 active torsions:
REMARK  status: ('A' for Active; 'I' for Inactive)
REMARK    1  A    between atoms: C1_1  and  O1_2
REMARK    2  A    between atoms: O1_2  and  C2_3
REMARK    3  A    between atoms: C8_9  and  C9_10
REMARK    4  A    between atoms: C8_9  and  C10_11
REMARK    5  A    between atoms: C10_11  and  C11_12
REMARK    6  A    between atoms: C11_12  and  C12_13
REMARK    7  A    between atoms: C12_13  and  N1_14
REMARK    8  A    between atoms: N1_14  and  C13_15
REMARK    9  A    between atoms: N1_14  and  C14_16
REMARK   10  A    between atoms: N2_19  and  C16_20
REMARK   11  A    between atoms: C17_22  and  O4_23
REMARK   12  A    between atoms: C17_22  and  C18_24
REMARK   13  A    between atoms: C18_24  and  O6_26
REMARK                            x       y       z     vdW  Elec       q    Type
REMARK                         _______ _______ _______ _____ _____    ______ ____
ROOT
ATOM      1  O3  UNL     1      -1.083   0.234   1.515  0.00  0.00    +0.000 OA
ATOM      2  C17 UNL     1      -0.729   0.136   0.356  0.00  0.00    +0.000 C 
ENDROOT
BRANCH   2   3
ATOM      3  O4  UNL     1      -1.594   0.256  -0.661  0.00  0.00    +0.000 OA
ATOM      4  H25 UNL     1      -2.457   0.422  -0.231  0.00  0.00    +0.000 HD
ENDBRANCH   2   3
BRANCH   2   5
ATOM      5  C18 UNL     1       0.729  -0.136  -0.123  0.00  0.00    +0.000 C 
ATOM      6  O5  UNL     1       1.083  -0.234  -1.281  0.00  0.00    +0.000 OA
BRANCH   5   7
ATOM      7  O6  UNL     1       1.594  -0.256   0.894  0.00  0.00    +0.000 OA
ATOM      8  H26 UNL     1       2.457  -0.422   0.464  0.00  0.00    +0.000 HD
ENDBRANCH   5   7
ENDBRANCH   2   5
TORSDOF 3
