REMARK  Name = /home/ubuntu/ubp_medicine_study/real_molecular_docking/ligands_pdbqt/NOVEL_0068.pdb
REMARK  8 active torsions:
REMARK  status: ('A' for Active; 'I' for Inactive)
REMARK    1  A    between atoms: C1_2  and  O2_3
REMARK    2  A    between atoms: C1_2  and  C2_4
REMARK    3  A    between atoms: C3_5  and  C4_6
REMARK    4  A    between atoms: C4_6  and  O4_8
REMARK    5  A    between atoms: O5_9  and  C5_10
REMARK    6  A    between atoms: C10_16  and  C11_17
REMARK    7  A    between atoms: C11_17  and  C12_18
REMARK    8  A    between atoms: C12_18  and  C13_19
REMARK                            x       y       z     vdW  Elec       q    Type
REMARK                         _______ _______ _______ _____ _____    ______ ____
ROOT
ATOM      1  C2  UNL     1      -0.466  -0.581   0.353  0.00  0.00    +0.000 C 
ATOM      2  C3  UNL     1       0.416   0.286  -0.161  0.00  0.00    +0.000 C 
ATOM      3  H2  UNL     1      -0.155  -1.437   0.943  0.00  0.00    +0.000 HD
ATOM      4  H3  UNL     1       0.128   1.146  -0.752  0.00  0.00    +0.000 HD
ENDROOT
BRANCH   1   6
ATOM      5  O1  UNL     1      -2.738  -1.225   0.621  0.00  0.00    +0.000 OA
ATOM      6  C1  UNL     1      -1.914  -0.453   0.167  0.00  0.00    +0.000 C 
BRANCH   6   7
ATOM      7  O2  UNL     1      -2.274   0.611  -0.565  0.00  0.00    +0.000 OA
ATOM      8  H1  UNL     1      -3.252   0.553  -0.596  0.00  0.00    +0.000 HD
ENDBRANCH   6   7
ENDBRANCH   1   6
BRANCH   2   9
ATOM      9  C4  UNL     1       1.844   0.074   0.080  0.00  0.00    +0.000 C 
ATOM     10  O3  UNL     1       2.358  -0.826   0.714  0.00  0.00    +0.000 OA
BRANCH   9  11
ATOM     11  O4  UNL     1       2.562   1.040  -0.511  0.00  0.00    +0.000 OA
ATOM     12  H4  UNL     1       3.491   0.813  -0.295  0.00  0.00    +0.000 HD
ENDBRANCH   9  11
ENDBRANCH   2   9
TORSDOF 4
REMARK  Name = /home/ubuntu/ubp_medicine_study/real_molecular_docking/ligands_pdbqt/NOVEL_0068.pdb
REMARK  8 active torsions:
REMARK  status: ('A' for Active; 'I' for Inactive)
REMARK    1  A    between atoms: C1_2  and  O2_3
REMARK    2  A    between atoms: C1_2  and  C2_4
REMARK    3  A    between atoms: C3_5  and  C4_6
REMARK    4  A    between atoms: C4_6  and  O4_8
REMARK    5  A    between atoms: O5_9  and  C5_10
REMARK    6  A    between atoms: C10_16  and  C11_17
REMARK    7  A    between atoms: C11_17  and  C12_18
REMARK    8  A    between atoms: C12_18  and  C13_19
REMARK                            x       y       z     vdW  Elec       q    Type
REMARK                         _______ _______ _______ _____ _____    ______ ____
ROOT
ATOM      1  C11 UNL     1      -0.199  -0.025   1.360  0.00  0.00    +0.000 C 
ATOM      2  H10 UNL     1       0.203  -0.182   2.369  0.00  0.00    +0.000 HD
ATOM      3  H11 UNL     1      -0.216   1.059   1.199  0.00  0.00    +0.000 HD
ENDROOT
BRANCH   1  10
ATOM      4  C5  UNL     1      -3.928   1.020  -1.289  0.00  0.00    +0.000 A 
ATOM      5  C6  UNL     1      -5.045   0.254  -0.984  0.00  0.00    +0.000 A 
ATOM      6  C7  UNL     1      -4.992  -0.711   0.025  0.00  0.00    +0.000 A 
ATOM      7  C8  UNL     1      -3.779  -0.871   0.706  0.00  0.00    +0.000 A 
ATOM      8  N1  UNL     1      -3.443  -1.729   1.726  0.00  0.00    +0.000 N 
ATOM      9  C9  UNL     1      -2.137  -1.544   2.091  0.00  0.00    +0.000 A 
ATOM     10  C10 UNL     1      -1.601  -0.546   1.300  0.00  0.00    +0.000 A 
ATOM     11  C18 UNL     1      -2.643  -0.113   0.416  0.00  0.00    +0.000 A 
ATOM     12  C19 UNL     1      -2.720   0.856  -0.607  0.00  0.00    +0.000 A 
ATOM     13  H6  UNL     1      -5.969   0.408  -1.535  0.00  0.00    +0.000 HD
ATOM     14  H7  UNL     1      -5.864  -1.311   0.266  0.00  0.00    +0.000 HD
ATOM     15  H8  UNL     1      -4.075  -2.399   2.142  0.00  0.00    +0.000 HD
ATOM     16  H9  UNL     1      -1.697  -2.136   2.882  0.00  0.00    +0.000 HD
ATOM     17  H24 UNL     1      -1.849   1.454  -0.848  0.00  0.00    +0.000 HD
BRANCH   4  18
ATOM     18  O5  UNL     1      -4.052   1.945  -2.287  0.00  0.00    +0.000 OA
ATOM     19  H5  UNL     1      -3.203   2.407  -2.382  0.00  0.00    +0.000 HD
ENDBRANCH   4  18
ENDBRANCH   1  10
BRANCH   1  20
ATOM     20  C12 UNL     1       0.712  -0.707   0.334  0.00  0.00    +0.000 C 
ATOM     21  H12 UNL     1       0.322  -0.543  -0.679  0.00  0.00    +0.000 HD
ATOM     22  H13 UNL     1       0.686  -1.792   0.500  0.00  0.00    +0.000 HD
BRANCH  20  23
ATOM     23  C13 UNL     1       2.169  -0.222   0.413  0.00  0.00    +0.000 C 
ATOM     24  C14 UNL     1       3.072  -1.039  -0.518  0.00  0.00    +0.000 C 
ATOM     25  C15 UNL     1       4.538  -0.606  -0.387  0.00  0.00    +0.000 C 
ATOM     26  N2  UNL     1       4.722   0.818  -0.095  0.00  0.00    +0.000 NA
ATOM     27  C16 UNL     1       3.628   1.630  -0.608  0.00  0.00    +0.000 C 
ATOM     28  C17 UNL     1       2.310   1.280   0.092  0.00  0.00    +0.000 C 
ATOM     29  H14 UNL     1       2.522  -0.385   1.441  0.00  0.00    +0.000 HD
ATOM     30  H15 UNL     1       2.742  -0.907  -1.557  0.00  0.00    +0.000 HD
ATOM     31  H16 UNL     1       2.991  -2.109  -0.295  0.00  0.00    +0.000 HD
ATOM     32  H17 UNL     1       5.065  -0.865  -1.313  0.00  0.00    +0.000 HD
ATOM     33  H18 UNL     1       5.016  -1.176   0.417  0.00  0.00    +0.000 HD
ATOM     34  H19 UNL     1       5.611   1.134  -0.478  0.00  0.00    +0.000 HD
ATOM     35  H20 UNL     1       3.534   1.497  -1.693  0.00  0.00    +0.000 HD
ATOM     36  H21 UNL     1       3.849   2.690  -0.442  0.00  0.00    +0.000 HD
ATOM     37  H22 UNL     1       2.233   1.844   1.031  0.00  0.00    +0.000 HD
ATOM     38  H23 UNL     1       1.486   1.623  -0.545  0.00  0.00    +0.000 HD
ENDBRANCH  20  23
ENDBRANCH   1  20
TORSDOF 4
