REMARK  Name = /home/ubuntu/ubp_medicine_study/real_molecular_docking/ligands_pdbqt/NOVEL_0044.pdb
REMARK  5 active torsions:
REMARK  status: ('A' for Active; 'I' for Inactive)
REMARK    1  A    between atoms: C1_1  and  N1_2
REMARK    2  A    between atoms: N1_2  and  C2_3
REMARK    3  A    between atoms: N1_2  and  C3_4
REMARK    4  A    between atoms: C6_7  and  C7_8
REMARK    5  A    between atoms: N2_9  and  N3_10
REMARK                            x       y       z     vdW  Elec       q    Type
REMARK                         _______ _______ _______ _____ _____    ______ ____
ROOT
ATOM      1  N3  UNL     1      -0.245   0.829  -1.527  0.00  0.00    +0.000 N 
ATOM      2  C8  UNL     1       0.605   0.175  -0.617  0.00  0.00    +0.000 C 
ATOM      3  O1  UNL     1       0.212  -0.551   0.288  0.00  0.00    +0.000 OA
ATOM      4  N4  UNL     1       1.917   0.503  -0.890  0.00  0.00    +0.000 N 
ATOM      5  C9  UNL     1       3.036   0.023  -0.261  0.00  0.00    +0.000 A 
ATOM      6  N5  UNL     1       4.207   0.569  -0.475  0.00  0.00    +0.000 NA
ATOM      7  C10 UNL     1       5.185  -0.103   0.258  0.00  0.00    +0.000 A 
ATOM      8  C11 UNL     1       4.711  -1.181   1.009  0.00  0.00    +0.000 A 
ATOM      9  C12 UNL     1       5.557  -1.971   1.804  0.00  0.00    +0.000 A 
ATOM     10  C13 UNL     1       6.920  -1.657   1.840  0.00  0.00    +0.000 A 
ATOM     11  C14 UNL     1       7.442  -0.587   1.105  0.00  0.00    +0.000 A 
ATOM     12  C15 UNL     1       8.809  -0.267   1.137  0.00  0.00    +0.000 A 
ATOM     13  C16 UNL     1       9.309   0.806   0.394  0.00  0.00    +0.000 A 
ATOM     14  C17 UNL     1       8.455   1.577  -0.392  0.00  0.00    +0.000 A 
ATOM     15  C18 UNL     1       7.093   1.279  -0.439  0.00  0.00    +0.000 A 
ATOM     16  C19 UNL     1       6.577   0.200   0.306  0.00  0.00    +0.000 A 
ATOM     17  S1  UNL     1       3.013  -1.326   0.771  0.00  0.00    +0.000 S 
ATOM     18  H10 UNL     1       0.137   0.916  -2.462  0.00  0.00    +0.000 HD
ATOM     19  H11 UNL     1       2.096   1.312  -1.463  0.00  0.00    +0.000 HD
ATOM     20  H12 UNL     1       5.164  -2.805   2.378  0.00  0.00    +0.000 HD
ATOM     21  H13 UNL     1       7.576  -2.269   2.457  0.00  0.00    +0.000 HD
ATOM     22  H14 UNL     1       9.497  -0.853   1.742  0.00  0.00    +0.000 HD
ATOM     23  H15 UNL     1      10.371   1.040   0.430  0.00  0.00    +0.000 HD
ATOM     24  H16 UNL     1       8.848   2.411  -0.968  0.00  0.00    +0.000 HD
ATOM     25  H17 UNL     1       6.432   1.886  -1.054  0.00  0.00    +0.000 HD
ENDROOT
BRANCH   1  27
ATOM     26  C7  UNL     1      -2.226   0.683  -0.410  0.00  0.00    +0.000 C 
ATOM     27  N2  UNL     1      -1.610   0.660  -1.551  0.00  0.00    +0.000 NA
ATOM     28  H9  UNL     1      -1.699   0.879   0.541  0.00  0.00    +0.000 HD
BRANCH  26  32
ATOM     29  C3  UNL     1      -6.488   0.089  -0.057  0.00  0.00    +0.000 A 
ATOM     30  C4  UNL     1      -5.850   0.096  -1.312  0.00  0.00    +0.000 A 
ATOM     31  C5  UNL     1      -4.467   0.281  -1.443  0.00  0.00    +0.000 A 
ATOM     32  C6  UNL     1      -3.685   0.478  -0.309  0.00  0.00    +0.000 A 
ATOM     33  C20 UNL     1      -4.284   0.495   0.948  0.00  0.00    +0.000 A 
ATOM     34  C21 UNL     1      -5.669   0.308   1.065  0.00  0.00    +0.000 A 
ATOM     35  H7  UNL     1      -6.430  -0.013  -2.224  0.00  0.00    +0.000 HD
ATOM     36  H8  UNL     1      -4.018   0.279  -2.433  0.00  0.00    +0.000 HD
ATOM     37  H18 UNL     1      -3.691   0.647   1.846  0.00  0.00    +0.000 HD
ATOM     38  H19 UNL     1      -6.086   0.320   2.067  0.00  0.00    +0.000 HD
BRANCH  29  39
ATOM     39  N1  UNL     1      -7.879  -0.086   0.033  0.00  0.00    +0.000 N 
BRANCH  39  40
ATOM     40  C1  UNL     1      -8.422  -1.196  -0.757  0.00  0.00    +0.000 C 
ATOM     41  H1  UNL     1      -8.271  -1.054  -1.832  0.00  0.00    +0.000 HD
ATOM     42  H2  UNL     1      -9.506  -1.276  -0.612  0.00  0.00    +0.000 HD
ATOM     43  H3  UNL     1      -7.974  -2.149  -0.451  0.00  0.00    +0.000 HD
ENDBRANCH  39  40
BRANCH  39  44
ATOM     44  C2  UNL     1      -8.526   0.107   1.330  0.00  0.00    +0.000 C 
ATOM     45  H4  UNL     1      -8.269   1.081   1.762  0.00  0.00    +0.000 HD
ATOM     46  H5  UNL     1      -9.616   0.101   1.216  0.00  0.00    +0.000 HD
ATOM     47  H6  UNL     1      -8.258  -0.690   2.033  0.00  0.00    +0.000 HD
ENDBRANCH  39  44
ENDBRANCH  29  39
ENDBRANCH  26  32
ENDBRANCH   1  27
TORSDOF 5
