REMARK  Name = /home/ubuntu/ubp_medicine_study/real_molecular_docking/ligands_pdbqt/NOVEL_0028.pdb
REMARK  12 active torsions:
REMARK  status: ('A' for Active; 'I' for Inactive)
REMARK    1  A    between atoms: C1_1  and  C2_2
REMARK    2  A    between atoms: C2_2  and  C3_3
REMARK    3  A    between atoms: C3_3  and  C4_4
REMARK    4  A    between atoms: C4_4  and  C5_5
REMARK    5  A    between atoms: C5_5  and  C6_6
REMARK    6  A    between atoms: C6_6  and  C7_7
REMARK    7  A    between atoms: C6_6  and  N1_9
REMARK    8  A    between atoms: C8_10  and  O3_12
REMARK    9  A    between atoms: O3_12  and  C9_13
REMARK   10  A    between atoms: C9_13  and  C10_14
REMARK   11  A    between atoms: C9_13  and  C11_15
REMARK   12  A    between atoms: C9_13  and  C12_16
REMARK                            x       y       z     vdW  Elec       q    Type
REMARK                         _______ _______ _______ _____ _____    ______ ____
ROOT
ATOM      1  C6  UNL     1       0.813  -1.062  -0.232  0.00  0.00    +0.000 C 
ATOM      2  H12 UNL     1       1.068  -0.190  -0.842  0.00  0.00    +0.000 HD
ENDROOT
BRANCH   1   3
ATOM      3  N1  UNL     1      -0.470  -0.820   0.410  0.00  0.00    +0.000 N 
ATOM      4  C8  UNL     1      -1.402  -0.011  -0.167  0.00  0.00    +0.000 C 
ATOM      5  O2  UNL     1      -1.184   0.744  -1.101  0.00  0.00    +0.000 OA
ATOM      6  H14 UNL     1      -0.879  -1.572   0.952  0.00  0.00    +0.000 HD
BRANCH   4   7
ATOM      7  O3  UNL     1      -2.588  -0.205   0.450  0.00  0.00    +0.000 OA
BRANCH   7   8
ATOM      8  C9  UNL     1      -3.774   0.513   0.022  0.00  0.00    +0.000 C 
BRANCH   8   9
ATOM      9  C10 UNL     1      -4.888   0.019   0.957  0.00  0.00    +0.000 C 
ATOM     10  H15 UNL     1      -5.012  -1.068   0.876  0.00  0.00    +0.000 HD
ATOM     11  H16 UNL     1      -4.637   0.224   2.004  0.00  0.00    +0.000 HD
ATOM     12  H17 UNL     1      -5.849   0.494   0.732  0.00  0.00    +0.000 HD
ENDBRANCH   8   9
BRANCH   8  13
ATOM     13  C11 UNL     1      -4.150   0.156  -1.420  0.00  0.00    +0.000 C 
ATOM     14  H18 UNL     1      -4.178  -0.931  -1.557  0.00  0.00    +0.000 HD
ATOM     15  H19 UNL     1      -5.130   0.566  -1.690  0.00  0.00    +0.000 HD
ATOM     16  H20 UNL     1      -3.424   0.544  -2.141  0.00  0.00    +0.000 HD
ENDBRANCH   8  13
BRANCH   8  17
ATOM     17  C12 UNL     1      -3.609   2.025   0.213  0.00  0.00    +0.000 C 
ATOM     18  H21 UNL     1      -3.255   2.252   1.225  0.00  0.00    +0.000 HD
ATOM     19  H22 UNL     1      -4.554   2.553   0.047  0.00  0.00    +0.000 HD
ATOM     20  H23 UNL     1      -2.873   2.446  -0.478  0.00  0.00    +0.000 HD
ENDBRANCH   8  17
ENDBRANCH   7   8
ENDBRANCH   4   7
ENDBRANCH   1   3
BRANCH   1  21
ATOM     21  C5  UNL     1       1.890  -1.347   0.817  0.00  0.00    +0.000 C 
ATOM     22  H10 UNL     1       1.896  -0.540   1.561  0.00  0.00    +0.000 HD
ATOM     23  H11 UNL     1       1.625  -2.257   1.374  0.00  0.00    +0.000 HD
BRANCH  21  24
ATOM     24  C4  UNL     1       3.306  -1.532   0.260  0.00  0.00    +0.000 C 
ATOM     25  H8  UNL     1       3.336  -2.436  -0.360  0.00  0.00    +0.000 HD
ATOM     26  H9  UNL     1       3.983  -1.722   1.103  0.00  0.00    +0.000 HD
BRANCH  24  27
ATOM     27  C3  UNL     1       3.861  -0.364  -0.561  0.00  0.00    +0.000 C 
ATOM     28  H6  UNL     1       3.272  -0.234  -1.476  0.00  0.00    +0.000 HD
ATOM     29  H7  UNL     1       4.874  -0.630  -0.886  0.00  0.00    +0.000 HD
BRANCH  27  30
ATOM     30  C2  UNL     1       3.916   0.953   0.213  0.00  0.00    +0.000 C 
ATOM     31  H4  UNL     1       4.475   0.815   1.145  0.00  0.00    +0.000 HD
ATOM     32  H5  UNL     1       2.905   1.279   0.483  0.00  0.00    +0.000 HD
BRANCH  30  33
ATOM     33  C1  UNL     1       4.576   2.051  -0.607  0.00  0.00    +0.000 C 
ATOM     34  H1  UNL     1       4.603   2.985  -0.037  0.00  0.00    +0.000 HD
ATOM     35  H2  UNL     1       5.605   1.783  -0.866  0.00  0.00    +0.000 HD
ATOM     36  H3  UNL     1       4.023   2.234  -1.534  0.00  0.00    +0.000 HD
ENDBRANCH  30  33
ENDBRANCH  27  30
ENDBRANCH  24  27
ENDBRANCH  21  24
ENDBRANCH   1  21
BRANCH   1  37
ATOM     37  C7  UNL     1       0.643  -2.256  -1.164  0.00  0.00    +0.000 C 
ATOM     38  O1  UNL     1      -0.129  -3.190  -0.955  0.00  0.00    +0.000 OA
ATOM     39  H13 UNL     1       1.314  -2.266  -2.040  0.00  0.00    +0.000 HD
ENDBRANCH   1  37
TORSDOF 12
