REMARK  Name = /home/ubuntu/ubp_medicine_study/real_molecular_docking/ligands_pdbqt/NOVEL_0094.pdb
REMARK  14 active torsions:
REMARK  status: ('A' for Active; 'I' for Inactive)
REMARK    1  A    between atoms: C3_5  and  C4_6
REMARK    2  A    between atoms: C4_6  and  O2_7
REMARK    3  A    between atoms: C4_6  and  C5_8
REMARK    4  A    between atoms: C5_8  and  O3_9
REMARK    5  A    between atoms: C5_8  and  C6_10
REMARK    6  A    between atoms: C6_10  and  O4_11
REMARK    7  A    between atoms: C6_10  and  C7_12
REMARK    8  A    between atoms: C7_12  and  O5_13
REMARK    9  A    between atoms: C7_12  and  C8_14
REMARK   10  A    between atoms: C8_14  and  O6_15
REMARK   11  A    between atoms: N1_16  and  C9_17
REMARK   12  A    between atoms: C12_20  and  S2_21
REMARK   13  A    between atoms: S2_21  and  N2_24
REMARK   14  A    between atoms: N2_24  and  C13_25
REMARK                            x       y       z     vdW  Elec       q    Type
REMARK                         _______ _______ _______ _____ _____    ______ ____
ROOT
ATOM      1  O1  UNL     1      -0.017   4.101  -1.332  0.00  0.00    +0.000 OA
ATOM      2  C1  UNL     1      -0.763   3.125  -1.344  0.00  0.00    +0.000 C 
ATOM      3  C2  UNL     1      -2.263   3.321  -1.430  0.00  0.00    +0.000 C 
ATOM      4  S1  UNL     1      -2.982   1.695  -1.681  0.00  0.00    +0.000 S 
ATOM      5  C3  UNL     1      -1.524   0.865  -0.958  0.00  0.00    +0.000 C 
ATOM      6  N1  UNL     1      -0.408   1.766  -1.274  0.00  0.00    +0.000 N 
ATOM      7  H1  UNL     1      -2.629   3.763  -0.499  0.00  0.00    +0.000 HD
ATOM      8  H2  UNL     1      -2.503   3.969  -2.277  0.00  0.00    +0.000 HD
ATOM      9  H3  UNL     1      -1.401  -0.086  -1.484  0.00  0.00    +0.000 HD
ENDROOT
BRANCH   6  10
ATOM     10  C9  UNL     1       0.935   1.275  -1.436  0.00  0.00    +0.000 A 
ATOM     11  C10 UNL     1       1.255  -0.082  -1.243  0.00  0.00    +0.000 A 
ATOM     12  C11 UNL     1       2.558  -0.570  -1.419  0.00  0.00    +0.000 A 
ATOM     13  C12 UNL     1       3.575   0.302  -1.792  0.00  0.00    +0.000 A 
ATOM     14  C18 UNL     1       3.291   1.643  -2.023  0.00  0.00    +0.000 A 
ATOM     15  C19 UNL     1       1.984   2.118  -1.845  0.00  0.00    +0.000 A 
ATOM     16  H15 UNL     1       0.511  -0.812  -0.936  0.00  0.00    +0.000 HD
ATOM     17  H16 UNL     1       2.760  -1.626  -1.251  0.00  0.00    +0.000 HD
ATOM     18  H22 UNL     1       4.067   2.332  -2.348  0.00  0.00    +0.000 HD
ATOM     19  H23 UNL     1       1.825   3.170  -2.063  0.00  0.00    +0.000 HD
BRANCH  13  20
ATOM     20  S2  UNL     1       5.227  -0.303  -2.048  0.00  0.00    +0.000 S 
ATOM     21  O7  UNL     1       5.161  -1.743  -2.186  0.00  0.00    +0.000 OA
ATOM     22  O8  UNL     1       5.825   0.511  -3.086  0.00  0.00    +0.000 OA
BRANCH  20  23
ATOM     23  N2  UNL     1       6.019   0.087  -0.614  0.00  0.00    +0.000 N 
ATOM     24  H17 UNL     1       6.129   1.096  -0.525  0.00  0.00    +0.000 HD
BRANCH  23  25
ATOM     25  C13 UNL     1       5.469  -0.445   0.567  0.00  0.00    +0.000 A 
ATOM     26  C14 UNL     1       5.478  -1.795   0.866  0.00  0.00    +0.000 A 
ATOM     27  C15 UNL     1       4.874  -2.203   2.049  0.00  0.00    +0.000 A 
ATOM     28  C16 UNL     1       4.298  -1.249   2.880  0.00  0.00    +0.000 A 
ATOM     29  C17 UNL     1       4.354   0.083   2.493  0.00  0.00    +0.000 A 
ATOM     30  N3  UNL     1       4.934   0.509   1.349  0.00  0.00    +0.000 NA
ATOM     31  H18 UNL     1       5.941  -2.517   0.198  0.00  0.00    +0.000 HD
ATOM     32  H19 UNL     1       4.855  -3.253   2.323  0.00  0.00    +0.000 HD
ATOM     33  H20 UNL     1       3.818  -1.533   3.812  0.00  0.00    +0.000 HD
ATOM     34  H21 UNL     1       3.922   0.866   3.114  0.00  0.00    +0.000 HD
ENDBRANCH  23  25
ENDBRANCH  20  23
ENDBRANCH  13  20
ENDBRANCH   6  10
BRANCH   5  35
ATOM     35  C4  UNL     1      -1.716   0.653   0.576  0.00  0.00    +0.000 C 
ATOM     36  H4  UNL     1      -1.626   1.620   1.090  0.00  0.00    +0.000 HD
BRANCH  35  37
ATOM     37  O2  UNL     1      -0.651  -0.144   1.128  0.00  0.00    +0.000 OA
ATOM     38  H5  UNL     1      -0.955  -0.373   2.029  0.00  0.00    +0.000 HD
ENDBRANCH  35  37
BRANCH  35  39
ATOM     39  C5  UNL     1      -3.066   0.018   1.010  0.00  0.00    +0.000 C 
ATOM     40  H6  UNL     1      -3.857   0.770   0.915  0.00  0.00    +0.000 HD
BRANCH  39  41
ATOM     41  O3  UNL     1      -2.933  -0.269   2.424  0.00  0.00    +0.000 OA
ATOM     42  H7  UNL     1      -3.766  -0.733   2.686  0.00  0.00    +0.000 HD
ENDBRANCH  39  41
BRANCH  39  43
ATOM     43  C6  UNL     1      -3.472  -1.278   0.259  0.00  0.00    +0.000 C 
ATOM     44  H8  UNL     1      -3.448  -1.138  -0.824  0.00  0.00    +0.000 HD
BRANCH  43  45
ATOM     45  O4  UNL     1      -2.522  -2.309   0.557  0.00  0.00    +0.000 OA
ATOM     46  H9  UNL     1      -2.524  -2.394   1.532  0.00  0.00    +0.000 HD
ENDBRANCH  43  45
BRANCH  43  47
ATOM     47  C7  UNL     1      -4.873  -1.797   0.650  0.00  0.00    +0.000 C 
ATOM     48  H10 UNL     1      -4.988  -2.839   0.326  0.00  0.00    +0.000 HD
BRANCH  47  49
ATOM     49  C8  UNL     1      -6.014  -0.951   0.073  0.00  0.00    +0.000 C 
ATOM     50  H12 UNL     1      -5.957   0.089   0.408  0.00  0.00    +0.000 HD
ATOM     51  H13 UNL     1      -6.021  -0.985  -1.021  0.00  0.00    +0.000 HD
BRANCH  49  52
ATOM     52  O6  UNL     1      -7.246  -1.481   0.566  0.00  0.00    +0.000 OA
ATOM     53  H14 UNL     1      -7.969  -0.990   0.127  0.00  0.00    +0.000 HD
ENDBRANCH  49  52
ENDBRANCH  47  49
BRANCH  47  54
ATOM     54  O5  UNL     1      -5.010  -1.818   2.088  0.00  0.00    +0.000 OA
ATOM     55  H11 UNL     1      -5.960  -2.029   2.232  0.00  0.00    +0.000 HD
ENDBRANCH  47  54
ENDBRANCH  43  47
ENDBRANCH  39  43
ENDBRANCH  35  39
ENDBRANCH   5  35
TORSDOF 14
