REMARK  Name = /home/ubuntu/ubp_medicine_study/real_molecular_docking/ligands_pdbqt/NOVEL_0014.pdb
REMARK  2 active torsions:
REMARK  status: ('A' for Active; 'I' for Inactive)
REMARK    1  A    between atoms: N2_5  and  C3_6
REMARK    2  A    between atoms: C7_11  and  C8_12
REMARK                            x       y       z     vdW  Elec       q    Type
REMARK                         _______ _______ _______ _____ _____    ______ ____
ROOT
ATOM      1  O1  UNL     1      -0.819  -3.772   2.265  0.00  0.00    +0.000 OA
ATOM      2  C1  UNL     1      -1.067  -2.729   1.694  0.00  0.00    +0.000 C 
ATOM      3  N1  UNL     1      -2.277  -2.246   1.312  0.00  0.00    +0.000 N 
ATOM      4  C2  UNL     1      -2.101  -1.054   0.691  0.00  0.00    +0.000 C 
ATOM      5  N2  UNL     1      -3.197  -0.398   0.211  0.00  0.00    +0.000 N 
ATOM      6  N3  UNL     1      -0.863  -0.666   0.623  0.00  0.00    +0.000 NA
ATOM      7  C6  UNL     1      -0.138  -1.665   1.233  0.00  0.00    +0.000 C 
ATOM      8  C7  UNL     1       1.181  -1.743   1.450  0.00  0.00    +0.000 C 
ATOM      9  H1  UNL     1      -3.135  -2.747   1.451  0.00  0.00    +0.000 HD
ATOM     10  H2  UNL     1      -4.095  -0.676   0.586  0.00  0.00    +0.000 HD
ATOM     11  H8  UNL     1       1.533  -2.614   2.002  0.00  0.00    +0.000 HD
ENDROOT
BRANCH   8  12
ATOM     12  C8  UNL     1       2.191  -0.798   1.090  0.00  0.00    +0.000 A 
ATOM     13  C9  UNL     1       3.330  -0.618   1.854  0.00  0.00    +0.000 A 
ATOM     14  N4  UNL     1       4.096   0.345   1.252  0.00  0.00    +0.000 N 
ATOM     15  C10 UNL     1       3.494   0.766   0.100  0.00  0.00    +0.000 A 
ATOM     16  N5  UNL     1       4.016   1.693  -0.725  0.00  0.00    +0.000 NA
ATOM     17  C11 UNL     1       3.242   1.927  -1.808  0.00  0.00    +0.000 A 
ATOM     18  C12 UNL     1       2.035   1.303  -2.091  0.00  0.00    +0.000 A 
ATOM     19  C13 UNL     1       1.544   0.348  -1.199  0.00  0.00    +0.000 A 
ATOM     20  C14 UNL     1       2.296   0.067  -0.043  0.00  0.00    +0.000 A 
ATOM     21  H9  UNL     1       3.656  -1.078   2.778  0.00  0.00    +0.000 HD
ATOM     22  H10 UNL     1       4.983   0.700   1.576  0.00  0.00    +0.000 HD
ATOM     23  H11 UNL     1       3.639   2.674  -2.491  0.00  0.00    +0.000 HD
ATOM     24  H12 UNL     1       1.483   1.552  -2.989  0.00  0.00    +0.000 HD
ATOM     25  H13 UNL     1       0.607  -0.160  -1.398  0.00  0.00    +0.000 HD
ENDBRANCH   8  12
BRANCH   5  26
ATOM     26  C3  UNL     1      -3.044   0.982  -0.241  0.00  0.00    +0.000 C 
ATOM     27  C4  UNL     1      -3.995   1.564  -1.249  0.00  0.00    +0.000 C 
ATOM     28  C5  UNL     1      -2.571   1.289  -1.634  0.00  0.00    +0.000 C 
ATOM     29  H3  UNL     1      -2.703   1.646   0.550  0.00  0.00    +0.000 HD
ATOM     30  H4  UNL     1      -4.761   0.925  -1.672  0.00  0.00    +0.000 HD
ATOM     31  H5  UNL     1      -4.295   2.598  -1.124  0.00  0.00    +0.000 HD
ATOM     32  H6  UNL     1      -2.368   0.457  -2.297  0.00  0.00    +0.000 HD
ATOM     33  H7  UNL     1      -1.897   2.129  -1.757  0.00  0.00    +0.000 HD
ENDBRANCH   5  26
TORSDOF 2
